 argument  1 = prod_5.nw
  NWChem w/ OpenMP: maximum threads =    1
                                         
                                         


             Northwest Computational Chemistry Package (NWChem) 7.2.3
             --------------------------------------------------------


                    Environmental Molecular Sciences Laboratory
                       Pacific Northwest National Laboratory
                                Richland, WA 99352

                              Copyright (c) 1994-2022
                       Pacific Northwest National Laboratory
                            Battelle Memorial Institute

             NWChem is an open-source computational chemistry package
                        distributed under the terms of the
                      Educational Community License (ECL) 2.0
             A copy of the license is included with this distribution
                              in the LICENSE.TXT file

                                  ACKNOWLEDGMENT
                                  --------------

            This software and its documentation were developed at the
            EMSL at Pacific Northwest National Laboratory, a multiprogram
            national laboratory, operated for the U.S. Department of Energy
            by Battelle under Contract Number DE-AC05-76RL01830. Support
            for this work was provided by the Department of Energy Office
            of Biological and Environmental Research, Office of Basic
            Energy Sciences, and the Office of Advanced Scientific Computing.


           Job information
           ---------------

    hostname        = 532b367baa37
    program         = nwchem
    date            = Fri Sep 12 17:11:30 2025

    compiled        = Fri_Jul_11_19:03:44_2025
    source          = /opt/nwchem
    nwchem branch   = 7.2.3
    nwchem revision = N/A
    ga revision     = 5.9.2
    use scalapack   = T
    input           = prod_5.nw
    prefix          = EMPTY.
    data base       = /data/EMPTY.db
    status          = startup
    nproc           =        2
    time left       =     -1s



           Memory information
           ------------------

    heap     =     16777216 doubles =      128.0 Mbytes
    stack    =     16777213 doubles =      128.0 Mbytes
    global   =     33554432 doubles =      256.0 Mbytes (distinct from heap & stack)
    total    =     67108861 doubles =      512.0 Mbytes
    verify   = yes
    hardfail = no 


           Directory information
           ---------------------

  0 permanent = /data
  0 scratch   = /data




                                NWChem Input Module
                                -------------------


                                   prod_5_redox
                                   ------------

 Scaling coordinates for geometry "geometry" by  1.889725989
 (inverse scale =  0.529177249)

 C1  symmetry detected

          ------
          auto-z
          ------
  no constraints, skipping    0.0000000000000000     
  no constraints, skipping    0.0000000000000000     


                             Geometry "geometry" -> ""
                             -------------------------

 Output coordinates in angstroms (scale by  1.889725989 to convert to a.u.)

  No.       Tag          Charge          X              Y              Z
 ---- ---------------- ---------- -------------- -------------- --------------
    1 C                    6.0000     0.38385465     2.61828791     0.22898599
    2 N                    7.0000     0.64034014     1.28954626    -0.30073692
    3 C                    6.0000    -0.24994683     0.27006428     0.22169790
    4 O                    8.0000    -1.57004944     0.55504408    -0.19816829
    5 C                    6.0000     0.14003048    -1.12692081    -0.31922711
    6 C                    6.0000     1.56932377    -1.52397847     0.06236462
    7 C                    6.0000    -0.83566789    -2.20056501     0.18045568
    8 H                    1.0000     0.41199624     2.62808820     1.32282131
    9 H                    1.0000    -0.58087091     3.01121699    -0.10790442
   10 H                    1.0000     1.15850274     3.30541195    -0.12600797
   11 H                    1.0000     0.53199217     1.30239263    -1.31378279
   12 H                    1.0000    -0.22078617     0.24878801     1.31891869
   13 H                    1.0000    -1.88998779     1.26511738     0.37990274
   14 H                    1.0000     0.06392009    -1.11627573    -1.41556183
   15 H                    1.0000     1.69641808    -1.54946757     1.15001263
   16 H                    1.0000     1.81048777    -2.51886224    -0.32808190
   17 H                    1.0000     2.30448948    -0.82650564    -0.35107164
   18 H                    1.0000    -1.86105375    -1.98758903    -0.13763443
   19 H                    1.0000    -0.56745892    -3.18398373    -0.22045576
   20 H                    1.0000    -0.82519956    -2.26683511     1.27368766

      Atomic Mass 
      ----------- 

      C                 12.000000
      N                 14.003070
      O                 15.994910
      H                  1.007825


 Effective nuclear repulsion energy (a.u.)     340.5618209510

            Nuclear Dipole moment (a.u.) 
            ----------------------------
        X                 Y               Z
 ---------------- ---------------- ----------------
    -0.0000000000     0.0000000000    -0.0000000000



                                Z-matrix (autoz)
                                -------- 

 Units are Angstrom for bonds and degrees for angles

      Type          Name      I     J     K     L     M      Value
      ----------- --------  ----- ----- ----- ----- ----- ----------
    1 Stretch                  1     2                       1.45325
    2 Stretch                  1     8                       1.09424
    3 Stretch                  1     9                       1.09480
    4 Stretch                  1    10                       1.09464
    5 Stretch                  2     3                       1.45082
    6 Stretch                  2    11                       1.01890
    7 Stretch                  3     4                       1.41427
    8 Stretch                  3     5                       1.54798
    9 Stretch                  3    12                       1.09781
   10 Stretch                  4    13                       0.96991
   11 Stretch                  5     6                       1.53171
   12 Stretch                  5     7                       1.53440
   13 Stretch                  5    14                       1.09902
   14 Stretch                  6    15                       1.09535
   15 Stretch                  6    16                       1.09563
   16 Stretch                  6    17                       1.09447
   17 Stretch                  7    18                       1.09451
   18 Stretch                  7    19                       1.09534
   19 Stretch                  7    20                       1.09529
   20 Bend                     1     2     3               113.76126
   21 Bend                     1     2    11               109.39732
   22 Bend                     2     1     8               111.59374
   23 Bend                     2     1     9               111.80881
   24 Bend                     2     1    10               109.31895
   25 Bend                     2     3     4               108.92217
   26 Bend                     2     3     5               110.71526
   27 Bend                     2     3    12               110.92951
   28 Bend                     3     2    11               107.55558
   29 Bend                     3     4    13               106.16943
   30 Bend                     3     5     6               112.45543
   31 Bend                     3     5     7               110.94497
   32 Bend                     3     5    14               108.80787
   33 Bend                     4     3     5               108.25567
   34 Bend                     4     3    12               108.99078
   35 Bend                     5     3    12               108.96969
   36 Bend                     5     6    15               111.20351
   37 Bend                     5     6    16               110.60993
   38 Bend                     5     6    17               111.56092
   39 Bend                     5     7    18               111.40300
   40 Bend                     5     7    19               110.69048
   41 Bend                     5     7    20               111.18010
   42 Bend                     6     5     7               109.32043
   43 Bend                     6     5    14               108.40008
   44 Bend                     7     5    14               106.71416
   45 Bend                     8     1     9               109.08999
   46 Bend                     8     1    10               107.47920
   47 Bend                     9     1    10               107.36812
   48 Bend                    15     6    16               107.89012
   49 Bend                    15     6    17               108.17894
   50 Bend                    16     6    17               107.22955
   51 Bend                    18     7    19               107.32119
   52 Bend                    18     7    20               108.10771
   53 Bend                    19     7    20               107.97876
   54 Torsion                  1     2     3     4          64.59528
   55 Torsion                  1     2     3     5        -176.47848
   56 Torsion                  1     2     3    12         -55.36602
   57 Torsion                  2     3     4    13         -78.07640
   58 Torsion                  2     3     5     6          59.72093
   59 Torsion                  2     3     5     7        -177.49189
   60 Torsion                  2     3     5    14         -60.38340
   61 Torsion                  3     2     1     8          55.15929
   62 Torsion                  3     2     1     9         -67.33627
   63 Torsion                  3     2     1    10         173.91396
   64 Torsion                  3     5     6    15          59.68505
   65 Torsion                  3     5     6    16         179.54787
   66 Torsion                  3     5     6    17         -61.18615
   67 Torsion                  3     5     7    18          59.56102
   68 Torsion                  3     5     7    19         178.89251
   69 Torsion                  3     5     7    20         -61.09502
   70 Torsion                  4     3     2    11         -56.72908
   71 Torsion                  4     3     5     6         179.04945
   72 Torsion                  4     3     5     7         -58.16337
   73 Torsion                  4     3     5    14          58.94512
   74 Torsion                  5     3     2    11          62.19716
   75 Torsion                  5     3     4    13         161.47080
   76 Torsion                  6     5     3    12         -62.54391
   77 Torsion                  6     5     7    18        -175.85656
   78 Torsion                  6     5     7    19         -56.52507
   79 Torsion                  6     5     7    20          63.48740
   80 Torsion                  7     5     3    12          60.24327
   81 Torsion                  7     5     6    15         -64.01083
   82 Torsion                  7     5     6    16          55.85199
   83 Torsion                  7     5     6    17         175.11797
   84 Torsion                  8     1     2    11         175.45159
   85 Torsion                  9     1     2    11          52.95604
   86 Torsion                 10     1     2    11         -65.79373
   87 Torsion                 11     2     3    12        -176.69038
   88 Torsion                 12     3     4    13          43.07757
   89 Torsion                 12     3     5    14         177.35176
   90 Torsion                 14     5     6    15        -179.97498
   91 Torsion                 14     5     6    16         -60.11216
   92 Torsion                 14     5     6    17          59.15381
   93 Torsion                 14     5     7    18         -58.82246
   94 Torsion                 14     5     7    19          60.50903
   95 Torsion                 14     5     7    20        -179.47850


            XYZ format geometry
            -------------------
    20
 geometry
 C                     0.38385465     2.61828791     0.22898599
 N                     0.64034014     1.28954626    -0.30073692
 C                    -0.24994683     0.27006428     0.22169790
 O                    -1.57004944     0.55504408    -0.19816829
 C                     0.14003048    -1.12692081    -0.31922711
 C                     1.56932377    -1.52397847     0.06236462
 C                    -0.83566789    -2.20056501     0.18045568
 H                     0.41199624     2.62808820     1.32282131
 H                    -0.58087091     3.01121699    -0.10790442
 H                     1.15850274     3.30541195    -0.12600797
 H                     0.53199217     1.30239263    -1.31378279
 H                    -0.22078617     0.24878801     1.31891869
 H                    -1.88998779     1.26511738     0.37990274
 H                     0.06392009    -1.11627573    -1.41556183
 H                     1.69641808    -1.54946757     1.15001263
 H                     1.81048777    -2.51886224    -0.32808190
 H                     2.30448948    -0.82650564    -0.35107164
 H                    -1.86105375    -1.98758903    -0.13763443
 H                    -0.56745892    -3.18398373    -0.22045576
 H                    -0.82519956    -2.26683511     1.27368766

 ==============================================================================
                                internuclear distances
 ------------------------------------------------------------------------------
       center one      |      center two      | atomic units |  angstroms
 ------------------------------------------------------------------------------
    2 N                |   1 C                |     2.74625  |     1.45325
    3 C                |   2 N                |     2.74166  |     1.45082
    4 O                |   3 C                |     2.67259  |     1.41427
    5 C                |   3 C                |     2.92526  |     1.54798
    6 C                |   5 C                |     2.89452  |     1.53171
    7 C                |   5 C                |     2.89959  |     1.53440
    8 H                |   1 C                |     2.06782  |     1.09424
    9 H                |   1 C                |     2.06887  |     1.09480
   10 H                |   1 C                |     2.06857  |     1.09464
   11 H                |   2 N                |     1.92545  |     1.01890
   12 H                |   3 C                |     2.07457  |     1.09781
   13 H                |   4 O                |     1.83287  |     0.96991
   14 H                |   5 C                |     2.07686  |     1.09902
   15 H                |   6 C                |     2.06990  |     1.09535
   16 H                |   6 C                |     2.07044  |     1.09563
   17 H                |   6 C                |     2.06825  |     1.09447
   18 H                |   7 C                |     2.06833  |     1.09451
   19 H                |   7 C                |     2.06990  |     1.09534
   20 H                |   7 C                |     2.06980  |     1.09529
 ------------------------------------------------------------------------------
                         number of included internuclear distances:         19
 ==============================================================================



 ==============================================================================
                                 internuclear angles
 ------------------------------------------------------------------------------
        center 1       |       center 2       |       center 3       |  degrees
 ------------------------------------------------------------------------------
    2 N                |   1 C                |   8 H                |   111.59
    2 N                |   1 C                |   9 H                |   111.81
    2 N                |   1 C                |  10 H                |   109.32
    8 H                |   1 C                |   9 H                |   109.09
    8 H                |   1 C                |  10 H                |   107.48
    9 H                |   1 C                |  10 H                |   107.37
    1 C                |   2 N                |   3 C                |   113.76
    1 C                |   2 N                |  11 H                |   109.40
    3 C                |   2 N                |  11 H                |   107.56
    2 N                |   3 C                |   4 O                |   108.92
    2 N                |   3 C                |   5 C                |   110.72
    2 N                |   3 C                |  12 H                |   110.93
    4 O                |   3 C                |   5 C                |   108.26
    4 O                |   3 C                |  12 H                |   108.99
    5 C                |   3 C                |  12 H                |   108.97
    3 C                |   4 O                |  13 H                |   106.17
    3 C                |   5 C                |   6 C                |   112.46
    3 C                |   5 C                |   7 C                |   110.94
    3 C                |   5 C                |  14 H                |   108.81
    6 C                |   5 C                |   7 C                |   109.32
    6 C                |   5 C                |  14 H                |   108.40
    7 C                |   5 C                |  14 H                |   106.71
    5 C                |   6 C                |  15 H                |   111.20
    5 C                |   6 C                |  16 H                |   110.61
    5 C                |   6 C                |  17 H                |   111.56
   15 H                |   6 C                |  16 H                |   107.89
   15 H                |   6 C                |  17 H                |   108.18
   16 H                |   6 C                |  17 H                |   107.23
    5 C                |   7 C                |  18 H                |   111.40
    5 C                |   7 C                |  19 H                |   110.69
    5 C                |   7 C                |  20 H                |   111.18
   18 H                |   7 C                |  19 H                |   107.32
   18 H                |   7 C                |  20 H                |   108.11
   19 H                |   7 C                |  20 H                |   107.98
 ------------------------------------------------------------------------------
                            number of included internuclear angles:         34
 ==============================================================================





 Summary of "ao basis" -> "" (cartesian)
 ------------------------------------------------------------------------------
       Tag                 Description            Shells   Functions and Types
 ---------------- ------------------------------  ------  ---------------------
 *                         def2-SV(P)                 on all atoms 


  pbe96 is a nonlocal functional; adding pw91lda local functional. 


                           NWChem Geometry Optimization
                           ----------------------------




                                   prod_5_redox


  no constraints, skipping    0.0000000000000000     
 maximum gradient threshold         (gmax) =   0.000450
 rms gradient threshold             (grms) =   0.000300
 maximum cartesian step threshold   (xmax) =   0.001800
 rms cartesian step threshold       (xrms) =   0.001200
 fixed trust radius                (trust) =   0.300000
 maximum step size to saddle      (sadstp) =   0.100000
 energy precision                  (eprec) =   5.0D-06
 maximum number of steps          (nptopt) =  300
 initial hessian option           (inhess) =    0
 line search option               (linopt) =    1
 hessian update option            (modupd) =    1
 saddle point option              (modsad) =    0
 initial eigen-mode to follow     (moddir) =    0
 initial variable to follow       (vardir) =    0
 follow first negative mode     (firstneg) =    T
 apply conjugacy                    (opcg) =    F
 source of zmatrix                         =   autoz   


          -------------------
          Energy Minimization
          -------------------


 Names of Z-matrix variables 
    1              2              3              4              5         
    6              7              8              9             10         
   11             12             13             14             15         
   16             17             18             19             20         
   21             22             23             24             25         
   26             27             28             29             30         
   31             32             33             34             35         
   36             37             38             39             40         
   41             42             43             44             45         
   46             47             48             49             50         
   51             52             53             54             55         
   56             57             58             59             60         
   61             62             63             64             65         
   66             67             68             69             70         
   71             72             73             74             75         
   76             77             78             79             80         
   81             82             83             84             85         
   86             87             88             89             90         
   91             92             93             94             95         

 Variables with the same non-blank name are constrained to be equal


 Using diagonal initial Hessian 
 Scaling for Hessian diagonals: bonds = 1.00  angles = 0.25  torsions = 0.10

          --------
          Step   0
          --------


                         Geometry "geometry" -> "geometry"
                         ---------------------------------

 Output coordinates in angstroms (scale by  1.889725989 to convert to a.u.)

  No.       Tag          Charge          X              Y              Z
 ---- ---------------- ---------- -------------- -------------- --------------
    1 C                    6.0000     0.38385465     2.61828791     0.22898599
    2 N                    7.0000     0.64034014     1.28954626    -0.30073692
    3 C                    6.0000    -0.24994683     0.27006428     0.22169790
    4 O                    8.0000    -1.57004944     0.55504408    -0.19816829
    5 C                    6.0000     0.14003048    -1.12692081    -0.31922711
    6 C                    6.0000     1.56932377    -1.52397847     0.06236462
    7 C                    6.0000    -0.83566789    -2.20056501     0.18045568
    8 H                    1.0000     0.41199624     2.62808820     1.32282131
    9 H                    1.0000    -0.58087091     3.01121699    -0.10790442
   10 H                    1.0000     1.15850274     3.30541195    -0.12600797
   11 H                    1.0000     0.53199217     1.30239263    -1.31378279
   12 H                    1.0000    -0.22078617     0.24878801     1.31891869
   13 H                    1.0000    -1.88998779     1.26511738     0.37990274
   14 H                    1.0000     0.06392009    -1.11627573    -1.41556183
   15 H                    1.0000     1.69641808    -1.54946757     1.15001263
   16 H                    1.0000     1.81048777    -2.51886224    -0.32808190
   17 H                    1.0000     2.30448948    -0.82650564    -0.35107164
   18 H                    1.0000    -1.86105375    -1.98758903    -0.13763443
   19 H                    1.0000    -0.56745892    -3.18398373    -0.22045576
   20 H                    1.0000    -0.82519956    -2.26683511     1.27368766

      Atomic Mass 
      ----------- 

      C                 12.000000
      N                 14.003070
      O                 15.994910
      H                  1.007825


 Effective nuclear repulsion energy (a.u.)     340.5618209510

            Nuclear Dipole moment (a.u.) 
            ----------------------------
        X                 Y               Z
 ---------------- ---------------- ----------------
    -0.0000000000     0.0000000000    -0.0000000000


                                 NWChem DFT Module
                                 -----------------


                                   prod_5_redox


                      Basis "ao basis" -> "ao basis" (cartesian)
                      -----
  C (Carbon)
  ----------
            Exponent  Coefficients 
       -------------- ---------------------------------------------------------
  1 S  1.23840169E+03  0.005457
  1 S  1.86290050E+02  0.040638
  1 S  4.22511763E+01  0.180256
  1 S  1.16765579E+01  0.463151
  1 S  3.59305065E+00  0.440872

  2 S  4.02451474E-01  1.000000

  3 S  1.30901827E-01  1.000000

  4 P  9.46809706E+00  0.038388
  4 P  2.01035451E+00  0.211170
  4 P  5.47710047E-01  0.513282

  5 P  1.52686138E-01  1.000000

  6 D  8.00000000E-01  1.000000

  N (Nitrogen)
  ------------
            Exponent  Coefficients 
       -------------- ---------------------------------------------------------
  1 S  1.71284159E+03 -0.005393
  1 S  2.57648127E+02 -0.040222
  1 S  5.84582459E+01 -0.179311
  1 S  1.61983679E+01 -0.463763
  1 S  5.00526008E+00 -0.441714

  2 S  5.87318566E-01  1.000000

  3 S  1.87645923E-01  1.000000

  4 P  1.35714702E+01 -0.040072
  4 P  2.92573729E+00 -0.218070
  4 P  7.99277508E-01 -0.512945

  5 P  2.19543480E-01  1.000000

  6 D  1.00000000E+00  1.000000

  O (Oxygen)
  ----------
            Exponent  Coefficients 
       -------------- ---------------------------------------------------------
  1 S  2.26617678E+03 -0.005343
  1 S  3.40870102E+02 -0.039890
  1 S  7.73631352E+01 -0.178539
  1 S  2.14796449E+01 -0.464277
  1 S  6.65894331E+00 -0.443097

  2 S  8.09759757E-01  1.000000

  3 S  2.55307722E-01  1.000000

  4 P  1.77215043E+01  0.043395
  4 P  3.86355054E+00  0.230941
  4 P  1.04809209E+00  0.513753

  5 P  2.76415444E-01  1.000000

  6 D  1.20000000E+00  1.000000

  H (Hydrogen)
  ------------
            Exponent  Coefficients 
       -------------- ---------------------------------------------------------
  1 S  1.30107010E+01  0.019682
  1 S  1.96225720E+00  0.137965
  1 S  4.44537960E-01  0.478319

  2 S  1.21949620E-01  1.000000



 Summary of "ao basis" -> "ao basis" (cartesian)
 ------------------------------------------------------------------------------
       Tag                 Description            Shells   Functions and Types
 ---------------- ------------------------------  ------  ---------------------
 C                         def2-SV(P)                6       15   3s2p1d
 N                         def2-SV(P)                6       15   3s2p1d
 O                         def2-SV(P)                6       15   3s2p1d
 H                         def2-SV(P)                2        2   2s




 Summary of "ao basis" -> "ao basis" (cartesian)
 ------------------------------------------------------------------------------
       Tag                 Description            Shells   Functions and Types
 ---------------- ------------------------------  ------  ---------------------
 C                         def2-SV(P)                6       15   3s2p1d
 N                         def2-SV(P)                6       15   3s2p1d
 O                         def2-SV(P)                6       15   3s2p1d
 H                         def2-SV(P)                2        2   2s


  Caching 1-el integrals 

            General Information
            -------------------
          SCF calculation type: DFT
          Wavefunction type:  closed shell.
          No. of atoms     :    20
          No. of electrons :    58
           Alpha electrons :    29
            Beta electrons :    29
          Charge           :     0
          Spin multiplicity:     1
          Use of symmetry is: off; symmetry adaption is: off
          Maximum number of iterations:  50
          AO basis - number of functions:   131
                     number of shells:    68
          Convergence on energy requested:  1.00D-06
          Convergence on density requested:  1.00D-05
          Convergence on gradient requested:  5.00D-04

              XC Information
              --------------
          PerdewBurkeErnzerhof Exchange Functional  1.000          
            Perdew 1991 LDA Correlation Functional  1.000 local    
           PerdewBurkeErnz. Correlation Functional  1.000 non-local

             Grid Information
             ----------------
          Grid used for XC integration:  xcoarse   
          Radial quadrature: Mura-Knowles        
          Angular quadrature: Lebedev. 
          Tag              B.-S. Rad. Rad. Pts. Rad. Cut. Ang. Pts.
          ---              ---------- --------- --------- ---------
          C                   0.70       21          13.0       194
          N                   0.65       21          11.0       194
          O                   0.60       21          11.0       194
          H                   0.35       21          14.0       194
          Grid pruning is: on 
          Number of quadrature shells:   420
          Spatial weights used:  Erf1

          Convergence Information
          -----------------------
          Convergence aids based upon iterative change in 
          total energy or number of iterations. 
          Levelshifting, if invoked, occurs when the 
          HOMO/LUMO gap drops below (HL_TOL):  1.00D-02
          DIIS, if invoked, will attempt to extrapolate 
          using up to (NFOCK): 10 stored Fock matrices.

                    Damping( 0%)  Levelshifting(0.5)       DIIS
                  --------------- ------------------- ---------------
          dE  on:    start            ASAP                start   
          dE off:    2 iters         50 iters            50 iters 


      Screening Tolerance Information
      -------------------------------
          Density screening/tol_rho:  1.00D-10
          AO Gaussian exp screening on grid/accAOfunc:  14
          CD Gaussian exp screening on grid/accCDfunc:  20
          XC Gaussian exp screening on grid/accXCfunc:  20
          Schwarz screening/accCoul:  1.00D-08

      Dispersion Parameters
      ---------------------

             DFT-D3 Model   
          s6 scale factor  :        1.000000000000
          s8 scale factor  :        0.722000000000
          sr6 scale factor :        1.217000000000
          sr8 scale factor :        1.000000000000
              vdW contrib  :       -0.008916681035


      Superposition of Atomic Density Guess
      -------------------------------------

 Sum of atomic energies:        -323.55001521

      Non-variational initial energy
      ------------------------------

 Total energy =    -328.313755
 1-e energy   =   -1111.444111
 2-e energy   =     442.568535
 HOMO         =      -0.293937
 LUMO         =       0.089314

   Time after variat. SCF:      0.4
   Time prior to 1st pass:      0.4
 Local filesystem for scratch_dir

 Integral file          = /data/EMPTY.aoints.0
 Record size in doubles =  65536        No. of integs per rec  =  43688
 Max. records in memory =      0        Max. records in file   =  13637
 No. of bits per label  =      8        No. of bits per value  =     64


 #quartets = 2.260D+06 #integrals = 2.843D+07 #direct =  0.0% #cached =100.0%


File balance: exchanges=     1  moved=    25  time=   0.0

 Local filesystem for scratch_dir

 Grid_pts file          = /data/EMPTY.gridpts.0
 Record size in doubles =  12289        No. of grid_pts per rec  =   3070
 Max. records in memory =     16        Max. recs in file   =     71080


           Memory utilization after 1st SCF pass: 
           Heap Space remaining (MW):       16.53            16531432
          Stack Space remaining (MW):       16.78            16775932

   convergence    iter        energy       DeltaE   RMS-Dens  Diis-err    time
 ---------------- ----- ----------------- --------- --------- ---------  ------
 d= 0,ls=0.0,diis     1   -327.5361584899 -6.68D+02  1.47D-02  1.06D+00     1.7
 d= 0,ls=0.0,diis     2   -327.5154916894  2.07D-02  9.32D-03  1.27D+00     2.1
 d= 0,ls=0.0,diis     3   -327.6200218091 -1.05D-01  2.60D-03  1.98D-01     2.4
 d= 0,ls=0.0,diis     4   -327.6363906151 -1.64D-02  8.22D-04  1.33D-02     2.7
 d= 0,ls=0.0,diis     5   -327.6376019155 -1.21D-03  2.52D-04  1.40D-03     3.1
  Resetting Diis
 d= 0,ls=0.0,diis     6   -327.6377423218 -1.40D-04  5.76D-05  3.50D-05     3.4
 d= 0,ls=0.0,diis     7   -327.6377452947 -2.97D-06  5.32D-05  9.49D-06     3.7
 d= 0,ls=0.0,diis     8   -327.6377432828  2.01D-06  3.33D-05  2.65D-05     4.0
 d= 0,ls=0.0,diis     9   -327.6377464208 -3.14D-06  2.36D-06  1.13D-07     4.4
 d= 0,ls=0.0,diis    10   -327.6377464311 -1.03D-08  6.87D-07  1.33D-08     4.7


         Total DFT energy =     -327.637746431101
      One electron energy =    -1118.740830326986
           Coulomb energy =      497.516914638542
    Exchange-Corr. energy =      -46.966735012600
 Nuclear repulsion energy =      340.561820950978

    Dispersion correction =       -0.008916681035

 Numeric. integr. density =       57.997442941825

     Total iterative time =      4.4s



                       DFT Final Molecular Orbital Analysis
                       ------------------------------------

 Vector    1  Occ=2.000000D+00  E=-1.876252D+01
              MO Center= -1.6D+00,  5.6D-01, -2.0D-01, r^2= 1.5D-02
   Bfn.  Coefficient  Atom+Function         Bfn.  Coefficient  Atom+Function  
  ----- ------------  ---------------      ----- ------------  ---------------
    46      0.985038   4 O  s                47     -0.052081   4 O  s         

 Vector    2  Occ=2.000000D+00  E=-1.398770D+01
              MO Center=  6.4D-01,  1.3D+00, -3.0D-01, r^2= 2.0D-02
   Bfn.  Coefficient  Atom+Function         Bfn.  Coefficient  Atom+Function  
  ----- ------------  ---------------      ----- ------------  ---------------
    16      0.985357   2 N  s                17     -0.056260   2 N  s         
    18      0.034050   2 N  s         

 Vector    3  Occ=2.000000D+00  E=-9.969488D+00
              MO Center= -2.5D-01,  2.7D-01,  2.2D-01, r^2= 2.8D-02
   Bfn.  Coefficient  Atom+Function         Bfn.  Coefficient  Atom+Function  
  ----- ------------  ---------------      ----- ------------  ---------------
    31      0.986712   3 C  s                32      0.055155   3 C  s         
    33     -0.035375   3 C  s         

 Vector    4  Occ=2.000000D+00  E=-9.922352D+00
              MO Center=  3.8D-01,  2.6D+00,  2.3D-01, r^2= 2.8D-02
   Bfn.  Coefficient  Atom+Function         Bfn.  Coefficient  Atom+Function  
  ----- ------------  ---------------      ----- ------------  ---------------
     1      0.986372   1 C  s                 2      0.056497   1 C  s         
     3     -0.040408   1 C  s         

 Vector    5  Occ=2.000000D+00  E=-9.905515D+00
              MO Center=  1.4D-01, -1.1D+00, -3.2D-01, r^2= 2.8D-02
   Bfn.  Coefficient  Atom+Function         Bfn.  Coefficient  Atom+Function  
  ----- ------------  ---------------      ----- ------------  ---------------
    61      0.986536   5 C  s                63     -0.073442   5 C  s         
    62      0.058937   5 C  s         

 Vector    6  Occ=2.000000D+00  E=-9.883992D+00
              MO Center=  1.6D+00, -1.5D+00,  6.2D-02, r^2= 2.8D-02
   Bfn.  Coefficient  Atom+Function         Bfn.  Coefficient  Atom+Function  
  ----- ------------  ---------------      ----- ------------  ---------------
    76      0.986297   6 C  s                77      0.057696   6 C  s         
    78     -0.048696   6 C  s         

 Vector    7  Occ=2.000000D+00  E=-9.883443D+00
              MO Center= -8.4D-01, -2.2D+00,  1.8D-01, r^2= 2.8D-02
   Bfn.  Coefficient  Atom+Function         Bfn.  Coefficient  Atom+Function  
  ----- ------------  ---------------      ----- ------------  ---------------
    91      0.986294   7 C  s                92      0.057782   7 C  s         
    93     -0.048878   7 C  s         

 Vector    8  Occ=2.000000D+00  E=-9.317105D-01
              MO Center= -1.2D+00,  6.5D-01, -3.3D-02, r^2= 8.7D-01
   Bfn.  Coefficient  Atom+Function         Bfn.  Coefficient  Atom+Function  
  ----- ------------  ---------------      ----- ------------  ---------------
    47      0.488262   4 O  s                48      0.256085   4 O  s         
    46      0.244381   4 O  s                32      0.200412   3 C  s         
   116      0.157698  13 H  s                17      0.111678   2 N  s         
    31     -0.108877   3 C  s                34     -0.090772   3 C  px        
    51      0.089326   4 O  pz               49      0.069624   4 O  px        

 Vector    9  Occ=2.000000D+00  E=-8.030376D-01
              MO Center=  2.1D-01,  1.3D+00, -2.0D-01, r^2= 1.5D+00
   Bfn.  Coefficient  Atom+Function         Bfn.  Coefficient  Atom+Function  
  ----- ------------  ---------------      ----- ------------  ---------------
    17      0.435138   2 N  s                16      0.216675   2 N  s         
    47     -0.202539   4 O  s                 2      0.199095   1 C  s         
    18      0.155037   2 N  s               112      0.137797  11 H  s         
    48     -0.124221   4 O  s                32      0.122566   3 C  s         
     1     -0.106626   1 C  s                34      0.106331   3 C  px        

 Vector   10  Occ=2.000000D+00  E=-7.101332D-01
              MO Center=  1.8D-01, -1.0D+00, -6.6D-02, r^2= 2.7D+00
   Bfn.  Coefficient  Atom+Function         Bfn.  Coefficient  Atom+Function  
  ----- ------------  ---------------      ----- ------------  ---------------
    62      0.334227   5 C  s                77      0.213242   6 C  s         
    92      0.214006   7 C  s                61     -0.174626   5 C  s         
    32      0.128601   3 C  s                76     -0.114617   6 C  s         
    91     -0.115140   7 C  s                 2     -0.107193   1 C  s         
   118      0.092155  14 H  s                35     -0.088586   3 C  py        

 Vector   11  Occ=2.000000D+00  E=-6.202840D-01
              MO Center=  7.5D-02,  1.1D+00,  1.2D-01, r^2= 4.9D+00
   Bfn.  Coefficient  Atom+Function         Bfn.  Coefficient  Atom+Function  
  ----- ------------  ---------------      ----- ------------  ---------------
     2      0.341933   1 C  s                32     -0.246214   3 C  s         
    92      0.180106   7 C  s                 1     -0.172534   1 C  s         
    20     -0.166935   2 N  py              110      0.129283  10 H  s         
   106      0.123191   8 H  s               108      0.123727   9 H  s         
    31      0.117557   3 C  s                65     -0.103632   5 C  py        

 Vector   12  Occ=2.000000D+00  E=-5.996651D-01
              MO Center=  5.3D-01, -1.7D+00,  9.8D-02, r^2= 3.0D+00
   Bfn.  Coefficient  Atom+Function         Bfn.  Coefficient  Atom+Function  
  ----- ------------  ---------------      ----- ------------  ---------------
    77      0.368521   6 C  s                92     -0.305649   7 C  s         
    76     -0.184960   6 C  s                91      0.153001   7 C  s         
    64      0.150398   5 C  px              124      0.135792  17 H  s         
   120      0.132780  15 H  s               122      0.131741  16 H  s         
   126     -0.116617  18 H  s               130     -0.110471  20 H  s         

 Vector   13  Occ=2.000000D+00  E=-5.597761D-01
              MO Center= -5.4D-02,  7.8D-01,  9.7D-02, r^2= 4.6D+00
   Bfn.  Coefficient  Atom+Function         Bfn.  Coefficient  Atom+Function  
  ----- ------------  ---------------      ----- ------------  ---------------
    32      0.251144   3 C  s                 2      0.221605   1 C  s         
    17     -0.212836   2 N  s               112     -0.179581  11 H  s         
    92     -0.158552   7 C  s                21     -0.155507   2 N  pz        
   114      0.132567  12 H  s               106      0.129726   8 H  s         
    31     -0.118464   3 C  s                49      0.116488   4 O  px        

 Vector   14  Occ=2.000000D+00  E=-5.073124D-01
              MO Center=  4.1D-02, -3.9D-01, -3.2D-02, r^2= 3.8D+00
   Bfn.  Coefficient  Atom+Function         Bfn.  Coefficient  Atom+Function  
  ----- ------------  ---------------      ----- ------------  ---------------
    62      0.262686   5 C  s                36     -0.179930   3 C  pz        
   118      0.178376  14 H  s                21      0.169582   2 N  pz        
   114     -0.158389  12 H  s                63     -0.144198   5 C  s         
    32     -0.138546   3 C  s                92     -0.138063   7 C  s         
    35     -0.133959   3 C  py               66     -0.123164   5 C  pz        

 Vector   15  Occ=2.000000D+00  E=-4.695077D-01
              MO Center= -5.8D-01,  1.3D-01, -2.1D-02, r^2= 3.6D+00
   Bfn.  Coefficient  Atom+Function         Bfn.  Coefficient  Atom+Function  
  ----- ------------  ---------------      ----- ------------  ---------------
    49      0.294046   4 O  px              116     -0.260867  13 H  s         
    50     -0.249827   4 O  py               34     -0.231239   3 C  px        
    62     -0.183197   5 C  s                52      0.143607   4 O  px        
    36     -0.123407   3 C  pz               79      0.115546   6 C  px        
    77      0.114258   6 C  s                21      0.110295   2 N  pz        

 Vector   16  Occ=2.000000D+00  E=-4.281289D-01
              MO Center=  1.2D-01,  2.2D-01, -3.3D-02, r^2= 4.1D+00
   Bfn.  Coefficient  Atom+Function         Bfn.  Coefficient  Atom+Function  
  ----- ------------  ---------------      ----- ------------  ---------------
    35      0.226861   3 C  py               66     -0.198055   5 C  pz        
    21     -0.182434   2 N  pz               36     -0.165196   3 C  pz        
   112     -0.145572  11 H  s                 6      0.141419   1 C  pz        
    19      0.138658   2 N  px              118      0.127975  14 H  s         
   114     -0.127317  12 H  s                20      0.125220   2 N  py        

 Vector   17  Occ=2.000000D+00  E=-4.106468D-01
              MO Center=  1.5D-01,  1.1D+00, -2.7D-02, r^2= 4.3D+00
   Bfn.  Coefficient  Atom+Function         Bfn.  Coefficient  Atom+Function  
  ----- ------------  ---------------      ----- ------------  ---------------
    20      0.286117   2 N  py                5      0.283496   1 C  py        
   108      0.171741   9 H  s                34      0.167137   3 C  px        
    21      0.152133   2 N  pz               65      0.139716   5 C  py        
     4     -0.138894   1 C  px               23     -0.127573   2 N  py        
    36     -0.120650   3 C  pz                8      0.115776   1 C  py        

 Vector   18  Occ=2.000000D+00  E=-3.903608D-01
              MO Center=  1.3D-02,  9.9D-01,  3.7D-02, r^2= 5.2D+00
   Bfn.  Coefficient  Atom+Function         Bfn.  Coefficient  Atom+Function  
  ----- ------------  ---------------      ----- ------------  ---------------
     4      0.257229   1 C  px              108     -0.219682   9 H  s         
     6      0.156923   1 C  pz               94     -0.150262   7 C  px        
    21     -0.131769   2 N  pz               65      0.131691   5 C  py        
   106      0.125147   8 H  s                48      0.122531   4 O  s         
     7      0.120689   1 C  px               19     -0.119619   2 N  px        

 Vector   19  Occ=2.000000D+00  E=-3.739416D-01
              MO Center=  1.3D-01, -6.6D-01,  1.0D-01, r^2= 4.7D+00
   Bfn.  Coefficient  Atom+Function         Bfn.  Coefficient  Atom+Function  
  ----- ------------  ---------------      ----- ------------  ---------------
    66     -0.184807   5 C  pz               36      0.179297   3 C  pz        
    81     -0.178903   6 C  pz              114      0.171223  12 H  s         
    79      0.166366   6 C  px               51      0.162910   4 O  pz        
    94     -0.158027   7 C  px               96     -0.147401   7 C  pz        
   124      0.147636  17 H  s               126      0.135814  18 H  s         

 Vector   20  Occ=2.000000D+00  E=-3.622316D-01
              MO Center=  1.6D-01,  4.6D-01,  1.6D-02, r^2= 7.2D+00
   Bfn.  Coefficient  Atom+Function         Bfn.  Coefficient  Atom+Function  
  ----- ------------  ---------------      ----- ------------  ---------------
     4      0.247095   1 C  px              110      0.206031  10 H  s         
     5      0.185804   1 C  py               95     -0.172872   7 C  py        
    94      0.165463   7 C  px              128      0.155221  19 H  s         
   108     -0.151841   9 H  s               126     -0.148313  18 H  s         
    20      0.143058   2 N  py               33      0.115518   3 C  s         

 Vector   21  Occ=2.000000D+00  E=-3.419439D-01
              MO Center=  4.6D-01,  6.2D-02,  1.6D-01, r^2= 6.3D+00
   Bfn.  Coefficient  Atom+Function         Bfn.  Coefficient  Atom+Function  
  ----- ------------  ---------------      ----- ------------  ---------------
     6      0.263772   1 C  pz              106      0.224671   8 H  s         
    80     -0.216690   6 C  py               64     -0.192606   5 C  px        
    95      0.169781   7 C  py              112      0.167654  11 H  s         
    21      0.160944   2 N  pz              122      0.139990  16 H  s         
    96     -0.132010   7 C  pz              130     -0.119852  20 H  s         

 Vector   22  Occ=2.000000D+00  E=-3.338773D-01
              MO Center=  3.7D-01, -3.2D-01,  3.3D-01, r^2= 6.6D+00
   Bfn.  Coefficient  Atom+Function         Bfn.  Coefficient  Atom+Function  
  ----- ------------  ---------------      ----- ------------  ---------------
    96     -0.253082   7 C  pz               81      0.244742   6 C  pz        
   130     -0.211873  20 H  s               120      0.201239  15 H  s         
     6     -0.197864   1 C  pz              106     -0.177054   8 H  s         
   110      0.157045  10 H  s                21     -0.123037   2 N  pz        
   112     -0.118377  11 H  s                34      0.114287   3 C  px        

 Vector   23  Occ=2.000000D+00  E=-3.242717D-01
              MO Center=  6.3D-01, -1.1D+00,  7.9D-02, r^2= 5.7D+00
   Bfn.  Coefficient  Atom+Function         Bfn.  Coefficient  Atom+Function  
  ----- ------------  ---------------      ----- ------------  ---------------
    80      0.271276   6 C  py              122     -0.264072  16 H  s         
   128      0.193375  19 H  s                95     -0.177290   7 C  py        
    96     -0.166484   7 C  pz               81      0.159090   6 C  pz        
     6      0.130722   1 C  pz              130     -0.131005  20 H  s         
   120      0.130245  15 H  s               106      0.122463   8 H  s         

 Vector   24  Occ=2.000000D+00  E=-3.119629D-01
              MO Center= -6.2D-01, -1.6D-01, -5.0D-02, r^2= 5.0D+00
   Bfn.  Coefficient  Atom+Function         Bfn.  Coefficient  Atom+Function  
  ----- ------------  ---------------      ----- ------------  ---------------
    49      0.233805   4 O  px               50      0.229333   4 O  py        
    51      0.213513   4 O  pz               48     -0.197570   4 O  s         
    63      0.181545   5 C  s                95      0.175005   7 C  py        
   128     -0.173185  19 H  s                35      0.167128   3 C  py        
    38      0.161477   3 C  py               52      0.160867   4 O  px        

 Vector   25  Occ=2.000000D+00  E=-2.865981D-01
              MO Center=  4.8D-03, -1.5D+00, -6.8D-02, r^2= 3.1D+00
   Bfn.  Coefficient  Atom+Function         Bfn.  Coefficient  Atom+Function  
  ----- ------------  ---------------      ----- ------------  ---------------
    79      0.243696   6 C  px              126     -0.217188  18 H  s         
   118      0.213124  14 H  s                66     -0.206712   5 C  pz        
    64     -0.200147   5 C  px               65      0.176945   5 C  py        
   130      0.156504  20 H  s                95     -0.155187   7 C  py        
    96      0.153450   7 C  pz               94      0.144680   7 C  px        

 Vector   26  Occ=2.000000D+00  E=-2.819561D-01
              MO Center=  3.8D-01, -1.4D+00, -8.8D-02, r^2= 3.1D+00
   Bfn.  Coefficient  Atom+Function         Bfn.  Coefficient  Atom+Function  
  ----- ------------  ---------------      ----- ------------  ---------------
    94      0.287301   7 C  px               64     -0.255161   5 C  px        
   124      0.253722  17 H  s                79      0.235710   6 C  px        
    66      0.167736   5 C  pz              126     -0.161658  18 H  s         
   118     -0.150591  14 H  s                97      0.148814   7 C  px        
    95      0.135193   7 C  py               65     -0.130870   5 C  py        

 Vector   27  Occ=2.000000D+00  E=-2.675249D-01
              MO Center= -3.2D-01, -3.9D-01, -3.6D-02, r^2= 3.6D+00
   Bfn.  Coefficient  Atom+Function         Bfn.  Coefficient  Atom+Function  
  ----- ------------  ---------------      ----- ------------  ---------------
    65     -0.242635   5 C  py               35      0.231695   3 C  py        
    51     -0.230623   4 O  pz               36      0.222339   3 C  pz        
   114      0.200291  12 H  s                66     -0.185704   5 C  pz        
   118      0.175454  14 H  s                63     -0.168185   5 C  s         
    48      0.157228   4 O  s               116     -0.155336  13 H  s         

 Vector   28  Occ=2.000000D+00  E=-2.371731D-01
              MO Center= -1.0D+00,  6.5D-01, -1.0D-01, r^2= 2.0D+00
   Bfn.  Coefficient  Atom+Function         Bfn.  Coefficient  Atom+Function  
  ----- ------------  ---------------      ----- ------------  ---------------
    51     -0.397993   4 O  pz               50      0.366239   4 O  py        
    54     -0.295528   4 O  pz               53      0.280458   4 O  py        
    18     -0.244985   2 N  s               114      0.159571  12 H  s         
    20     -0.157090   2 N  py               17     -0.122988   2 N  s         
    63      0.123009   5 C  s                23      0.121954   2 N  py        

 Vector   29  Occ=2.000000D+00  E=-1.764822D-01
              MO Center=  3.3D-01,  1.3D+00, -2.2D-01, r^2= 2.2D+00
   Bfn.  Coefficient  Atom+Function         Bfn.  Coefficient  Atom+Function  
  ----- ------------  ---------------      ----- ------------  ---------------
    19      0.505486   2 N  px               22     -0.416019   2 N  px        
    49     -0.226319   4 O  px              109     -0.210387   9 H  s         
    52     -0.189466   4 O  px              108     -0.165796   9 H  s         
    50     -0.150372   4 O  py               17     -0.118142   2 N  s         
    53     -0.113604   4 O  py               18     -0.107570   2 N  s         

 Vector   30  Occ=0.000000D+00  E= 2.057229D-02
              MO Center= -1.2D+00,  1.6D+00,  5.5D-01, r^2= 4.9D+00
   Bfn.  Coefficient  Atom+Function         Bfn.  Coefficient  Atom+Function  
  ----- ------------  ---------------      ----- ------------  ---------------
     3      1.186633   1 C  s               117     -0.917103  13 H  s         
    33      0.640972   3 C  s               109     -0.638575   9 H  s         
   115     -0.605066  12 H  s                48      0.539887   4 O  s         
   107     -0.501468   8 H  s               111     -0.475259  10 H  s         
    39      0.309711   3 C  pz               93      0.277600   7 C  s         

 Vector   31  Occ=0.000000D+00  E= 4.978193D-02
              MO Center=  5.1D-01, -2.4D-01, -1.1D+00, r^2= 6.8D+00
   Bfn.  Coefficient  Atom+Function         Bfn.  Coefficient  Atom+Function  
  ----- ------------  ---------------      ----- ------------  ---------------
   119      0.990921  14 H  s               113      0.877231  11 H  s         
    78     -0.806594   6 C  s                63     -0.750689   5 C  s         
    18     -0.633563   2 N  s               123      0.579236  16 H  s         
   125      0.481952  17 H  s                69      0.477947   5 C  pz        
   129      0.447519  19 H  s                93     -0.439900   7 C  s         

 Vector   32  Occ=0.000000D+00  E= 5.279142D-02
              MO Center=  3.0D-01, -9.8D-01,  5.8D-01, r^2= 8.7D+00
   Bfn.  Coefficient  Atom+Function         Bfn.  Coefficient  Atom+Function  
  ----- ------------  ---------------      ----- ------------  ---------------
    78      1.271729   6 C  s                93      1.218785   7 C  s         
   131     -0.849474  20 H  s               115     -0.801773  12 H  s         
   121     -0.791062  15 H  s               123     -0.649418  16 H  s         
   129     -0.616208  19 H  s                 3     -0.608159   1 C  s         
   113      0.522198  11 H  s                33      0.459347   3 C  s         

 Vector   33  Occ=0.000000D+00  E= 7.394823D-02
              MO Center= -7.3D-02,  1.1D+00,  6.3D-01, r^2= 8.6D+00
   Bfn.  Coefficient  Atom+Function         Bfn.  Coefficient  Atom+Function  
  ----- ------------  ---------------      ----- ------------  ---------------
     3      1.304117   1 C  s               107     -1.270154   8 H  s         
    93     -0.867972   7 C  s                78      0.624097   6 C  s         
   111     -0.624337  10 H  s               117      0.624030  13 H  s         
     9      0.548183   1 C  pz               48     -0.522423   4 O  s         
   115     -0.485031  12 H  s               129      0.481208  19 H  s         

 Vector   34  Occ=0.000000D+00  E= 9.033278D-02
              MO Center=  3.3D-01,  5.0D-01,  1.3D-02, r^2= 1.2D+01
   Bfn.  Coefficient  Atom+Function         Bfn.  Coefficient  Atom+Function  
  ----- ------------  ---------------      ----- ------------  ---------------
     3      1.881253   1 C  s                93      1.137919   7 C  s         
    18     -0.987820   2 N  s               129     -0.977507  19 H  s         
   111     -0.875336  10 H  s               107     -0.711504   8 H  s         
   115      0.698437  12 H  s               109     -0.655636   9 H  s         
   113      0.565885  11 H  s                63     -0.498924   5 C  s         

 Vector   35  Occ=0.000000D+00  E= 1.027950D-01
              MO Center=  4.7D-01,  3.3D-01,  4.4D-01, r^2= 1.1D+01
   Bfn.  Coefficient  Atom+Function         Bfn.  Coefficient  Atom+Function  
  ----- ------------  ---------------      ----- ------------  ---------------
   111     -1.143928  10 H  s                93      1.075228   7 C  s         
   131     -1.057268  20 H  s                63     -0.941753   5 C  s         
   107      0.877017   8 H  s               119      0.789378  14 H  s         
     9     -0.634948   1 C  pz              123      0.615945  16 H  s         
   121     -0.604491  15 H  s                99      0.383712   7 C  pz        

 Vector   36  Occ=0.000000D+00  E= 1.081310D-01
              MO Center=  4.8D-01, -1.1D+00,  2.7D-01, r^2= 9.8D+00
   Bfn.  Coefficient  Atom+Function         Bfn.  Coefficient  Atom+Function  
  ----- ------------  ---------------      ----- ------------  ---------------
    78      2.204913   6 C  s                93     -1.500917   7 C  s         
   123     -1.093211  16 H  s               131      0.973337  20 H  s         
   121     -0.838588  15 H  s                63     -0.689620   5 C  s         
   125     -0.689976  17 H  s               127      0.686359  18 H  s         
   107      0.614961   8 H  s               119      0.547561  14 H  s         

 Vector   37  Occ=0.000000D+00  E= 1.103758D-01
              MO Center=  1.0D-02,  1.9D+00,  7.5D-02, r^2= 8.1D+00
   Bfn.  Coefficient  Atom+Function         Bfn.  Coefficient  Atom+Function  
  ----- ------------  ---------------      ----- ------------  ---------------
   109      1.623584   9 H  s               111     -0.997007  10 H  s         
     7      0.976138   1 C  px              121      0.773008  15 H  s         
    33      0.594805   3 C  s                 3     -0.568823   1 C  s         
    78     -0.461921   6 C  s               115     -0.443227  12 H  s         
   127     -0.440578  18 H  s                63     -0.392884   5 C  s         

 Vector   38  Occ=0.000000D+00  E= 1.154600D-01
              MO Center=  3.7D-01, -8.3D-01, -8.1D-02, r^2= 8.9D+00
   Bfn.  Coefficient  Atom+Function         Bfn.  Coefficient  Atom+Function  
  ----- ------------  ---------------      ----- ------------  ---------------
    78      1.296208   6 C  s               125     -1.260767  17 H  s         
   127     -1.099441  18 H  s                 3      0.698384   1 C  s         
   129      0.659990  19 H  s               107     -0.617973   8 H  s         
    83      0.614411   6 C  py              115      0.588137  12 H  s         
    98      0.578397   7 C  py               33     -0.547204   3 C  s         

 Vector   39  Occ=0.000000D+00  E= 1.296120D-01
              MO Center=  9.6D-02, -5.9D-01, -7.1D-01, r^2= 8.7D+00
   Bfn.  Coefficient  Atom+Function         Bfn.  Coefficient  Atom+Function  
  ----- ------------  ---------------      ----- ------------  ---------------
    63      2.003973   5 C  s               119     -1.661067  14 H  s         
    93     -1.478472   7 C  s                18     -1.026638   2 N  s         
   127      0.824397  18 H  s               111     -0.736145  10 H  s         
    69     -0.706024   5 C  pz                3      0.682385   1 C  s         
   129      0.586434  19 H  s               123      0.581016  16 H  s         

 Vector   40  Occ=0.000000D+00  E= 1.427901D-01
              MO Center=  3.5D-01, -1.4D+00, -1.6D-01, r^2= 8.1D+00
   Bfn.  Coefficient  Atom+Function         Bfn.  Coefficient  Atom+Function  
  ----- ------------  ---------------      ----- ------------  ---------------
   129      1.185105  19 H  s               125      1.080149  17 H  s         
   123     -0.936964  16 H  s               127     -0.766097  18 H  s         
    83     -0.683151   6 C  py               97     -0.566580   7 C  px        
    37     -0.502499   3 C  px              111     -0.497179  10 H  s         
   131     -0.499216  20 H  s                98      0.422037   7 C  py        

 Vector   41  Occ=0.000000D+00  E= 1.514518D-01
              MO Center=  5.7D-01, -1.7D+00,  4.8D-01, r^2= 7.2D+00
   Bfn.  Coefficient  Atom+Function         Bfn.  Coefficient  Atom+Function  
  ----- ------------  ---------------      ----- ------------  ---------------
   121      1.350731  15 H  s               131     -1.123764  20 H  s         
   125     -1.059447  17 H  s               127      0.951211  18 H  s         
    84     -0.890564   6 C  pz               99      0.710286   7 C  pz        
   123     -0.690381  16 H  s               129      0.663738  19 H  s         
    97      0.446657   7 C  px               82      0.384356   6 C  px        

 Vector   42  Occ=0.000000D+00  E= 1.555283D-01
              MO Center= -4.8D-01,  6.7D-01,  7.2D-01, r^2= 8.4D+00
   Bfn.  Coefficient  Atom+Function         Bfn.  Coefficient  Atom+Function  
  ----- ------------  ---------------      ----- ------------  ---------------
   115      1.389757  12 H  s               109      1.186010   9 H  s         
   107     -0.956011   8 H  s                33     -0.832220   3 C  s         
   127      0.752959  18 H  s               131     -0.756632  20 H  s         
   117     -0.725093  13 H  s               121     -0.601655  15 H  s         
     9      0.564762   1 C  pz               39     -0.562251   3 C  pz        

 Vector   43  Occ=0.000000D+00  E= 1.785794D-01
              MO Center=  3.2D-01,  8.7D-01, -5.8D-02, r^2= 7.0D+00
   Bfn.  Coefficient  Atom+Function         Bfn.  Coefficient  Atom+Function  
  ----- ------------  ---------------      ----- ------------  ---------------
    33     -1.287109   3 C  s                 8      1.278421   1 C  py        
    18      1.093632   2 N  s                63      1.043585   5 C  s         
    68      0.814300   5 C  py                3     -0.770832   1 C  s         
   129     -0.697919  19 H  s                38      0.656333   3 C  py        
   113      0.630643  11 H  s               123      0.588294  16 H  s         

 Vector   44  Occ=0.000000D+00  E= 1.919111D-01
              MO Center=  1.6D-03, -9.3D-01,  1.7D-01, r^2= 5.7D+00
   Bfn.  Coefficient  Atom+Function         Bfn.  Coefficient  Atom+Function  
  ----- ------------  ---------------      ----- ------------  ---------------
    63      2.868078   5 C  s                93     -1.769886   7 C  s         
    68     -1.551783   5 C  py               78     -1.350997   6 C  s         
    82      1.123049   6 C  px               97     -1.104860   7 C  px        
   115      0.744055  12 H  s                98     -0.663417   7 C  py        
    33     -0.609419   3 C  s                69      0.552236   5 C  pz        

 Vector   45  Occ=0.000000D+00  E= 2.145657D-01
              MO Center=  5.6D-01, -1.2D+00,  5.2D-02, r^2= 4.1D+00
   Bfn.  Coefficient  Atom+Function         Bfn.  Coefficient  Atom+Function  
  ----- ------------  ---------------      ----- ------------  ---------------
    67      1.972256   5 C  px               63      1.751591   5 C  s         
    78     -1.746242   6 C  s                82      1.386375   6 C  px        
    68      1.008157   5 C  py               33     -0.950227   3 C  s         
    83     -0.859359   6 C  py               98      0.816338   7 C  py        
    93      0.727779   7 C  s                37     -0.693396   3 C  px        

 Vector   46  Occ=0.000000D+00  E= 2.177350D-01
              MO Center= -2.4D-01, -3.2D-01,  1.4D-01, r^2= 4.9D+00
   Bfn.  Coefficient  Atom+Function         Bfn.  Coefficient  Atom+Function  
  ----- ------------  ---------------      ----- ------------  ---------------
    63      2.534723   5 C  s                38      1.937481   3 C  py        
    33     -1.446897   3 C  s                67     -1.270504   5 C  px        
    93     -1.257640   7 C  s                69      1.109067   5 C  pz        
    68      0.862952   5 C  py               18     -0.831829   2 N  s         
    98     -0.671266   7 C  py               37      0.534703   3 C  px        

 Vector   47  Occ=0.000000D+00  E= 2.190942D-01
              MO Center=  6.5D-02, -7.8D-02,  1.5D-01, r^2= 6.4D+00
   Bfn.  Coefficient  Atom+Function         Bfn.  Coefficient  Atom+Function  
  ----- ------------  ---------------      ----- ------------  ---------------
    63      2.145936   5 C  s                78     -1.353400   6 C  s         
    37     -1.198488   3 C  px               69      0.849728   5 C  pz        
    93     -0.849941   7 C  s                82      0.791978   6 C  px        
    98     -0.770688   7 C  py               23     -0.705335   2 N  py        
   123      0.669032  16 H  s                 8     -0.661151   1 C  py        

 Vector   48  Occ=0.000000D+00  E= 2.716877D-01
              MO Center= -1.1D-02,  3.1D-01, -2.3D-01, r^2= 3.6D+00
   Bfn.  Coefficient  Atom+Function         Bfn.  Coefficient  Atom+Function  
  ----- ------------  ---------------      ----- ------------  ---------------
    33      2.233016   3 C  s                68     -1.211682   5 C  py        
    39     -1.172870   3 C  pz               18     -0.937913   2 N  s         
    23      0.876174   2 N  py               22      0.568174   2 N  px        
    93     -0.521277   7 C  s                32      0.512196   3 C  s         
    63     -0.509081   5 C  s                37      0.488282   3 C  px        

 Vector   49  Occ=0.000000D+00  E= 3.782275D-01
              MO Center=  3.2D-01, -1.5D+00,  2.2D-01, r^2= 5.3D+00
   Bfn.  Coefficient  Atom+Function         Bfn.  Coefficient  Atom+Function  
  ----- ------------  ---------------      ----- ------------  ---------------
    33      1.500742   3 C  s                68     -1.295585   5 C  py        
    63     -0.793484   5 C  s                78     -0.678059   6 C  s         
    38     -0.621094   3 C  py               93     -0.602750   7 C  s         
    83      0.583641   6 C  py                3      0.576672   1 C  s         
    97     -0.509601   7 C  px              124     -0.473390  17 H  s         

 Vector   50  Occ=0.000000D+00  E= 3.913950D-01
              MO Center=  3.8D-01, -5.4D-01,  3.1D-02, r^2= 6.8D+00
   Bfn.  Coefficient  Atom+Function         Bfn.  Coefficient  Atom+Function  
  ----- ------------  ---------------      ----- ------------  ---------------
    63      2.082772   5 C  s                33     -1.250818   3 C  s         
    93     -1.208763   7 C  s                 3     -1.119493   1 C  s         
    18      1.058821   2 N  s                98     -0.674852   7 C  py        
    37     -0.642136   3 C  px               97     -0.636141   7 C  px        
     8      0.566804   1 C  py               84     -0.520812   6 C  pz        

 Vector   51  Occ=0.000000D+00  E= 3.926448D-01
              MO Center=  5.0D-03,  4.3D-01,  8.4D-02, r^2= 6.4D+00
   Bfn.  Coefficient  Atom+Function         Bfn.  Coefficient  Atom+Function  
  ----- ------------  ---------------      ----- ------------  ---------------
    33      1.422114   3 C  s                38      0.906569   3 C  py        
    18     -0.740357   2 N  s                78     -0.597440   6 C  s         
    63      0.494186   5 C  s                82      0.493085   6 C  px        
   106     -0.475081   8 H  s                 9      0.458244   1 C  pz        
    35     -0.450765   3 C  py              117     -0.417574  13 H  s         

 Vector   52  Occ=0.000000D+00  E= 4.305756D-01
              MO Center=  5.8D-01,  2.0D-01,  1.0D-01, r^2= 6.4D+00
   Bfn.  Coefficient  Atom+Function         Bfn.  Coefficient  Atom+Function  
  ----- ------------  ---------------      ----- ------------  ---------------
     3      1.145604   1 C  s                18     -0.684357   2 N  s         
    38      0.616431   3 C  py               33     -0.602077   3 C  s         
    84     -0.579095   6 C  pz              120      0.476829  15 H  s         
     2     -0.447924   1 C  s                 8     -0.439561   1 C  py        
     7     -0.425216   1 C  px              122     -0.409797  16 H  s         

 Vector   53  Occ=0.000000D+00  E= 4.333897D-01
              MO Center=  3.6D-01,  5.2D-01,  6.9D-02, r^2= 7.3D+00
   Bfn.  Coefficient  Atom+Function         Bfn.  Coefficient  Atom+Function  
  ----- ------------  ---------------      ----- ------------  ---------------
    63      2.266490   5 C  s                33     -1.928504   3 C  s         
    78     -1.082306   6 C  s                68      0.938135   5 C  py        
     9     -0.722781   1 C  pz               82      0.659940   6 C  px        
    38      0.610881   3 C  py              106      0.549878   8 H  s         
    69      0.518156   5 C  pz               99     -0.474417   7 C  pz        

 Vector   54  Occ=0.000000D+00  E= 4.467180D-01
              MO Center=  4.3D-01,  9.0D-01,  1.8D-01, r^2= 6.5D+00
   Bfn.  Coefficient  Atom+Function         Bfn.  Coefficient  Atom+Function  
  ----- ------------  ---------------      ----- ------------  ---------------
     7      0.839996   1 C  px              108      0.635277   9 H  s         
    78     -0.604999   6 C  s                83     -0.467036   6 C  py        
    34      0.408717   3 C  px              122     -0.365762  16 H  s         
   110     -0.341792  10 H  s                 3      0.338903   1 C  s         
     8     -0.302289   1 C  py               77      0.296350   6 C  s         

 Vector   55  Occ=0.000000D+00  E= 4.633272D-01
              MO Center= -4.7D-01, -1.8D-01,  2.2D-01, r^2= 6.5D+00
   Bfn.  Coefficient  Atom+Function         Bfn.  Coefficient  Atom+Function  
  ----- ------------  ---------------      ----- ------------  ---------------
    33      5.170343   3 C  s                63     -2.166511   5 C  s         
    68     -1.285790   5 C  py               18     -0.960942   2 N  s         
    48     -0.860102   4 O  s               115     -0.804292  12 H  s         
    39     -0.798486   3 C  pz               93      0.789993   7 C  s         
    32     -0.755389   3 C  s                98      0.700850   7 C  py        

 Vector   56  Occ=0.000000D+00  E= 4.941081D-01
              MO Center= -2.3D-01,  3.0D-01,  1.6D-01, r^2= 6.3D+00
   Bfn.  Coefficient  Atom+Function         Bfn.  Coefficient  Atom+Function  
  ----- ------------  ---------------      ----- ------------  ---------------
    33      2.976958   3 C  s                18     -1.425839   2 N  s         
     3      1.294496   1 C  s                63     -0.973084   5 C  s         
    78      0.946859   6 C  s                93     -0.854550   7 C  s         
    32     -0.733088   3 C  s               115     -0.723867  12 H  s         
    68     -0.654158   5 C  py               99      0.628684   7 C  pz        

 Vector   57  Occ=0.000000D+00  E= 5.403323D-01
              MO Center=  1.5D-01, -7.3D-01, -3.6D-02, r^2= 4.9D+00
   Bfn.  Coefficient  Atom+Function         Bfn.  Coefficient  Atom+Function  
  ----- ------------  ---------------      ----- ------------  ---------------
    63      5.145328   5 C  s                33     -3.511273   3 C  s         
    93     -2.113462   7 C  s                78     -1.739975   6 C  s         
    62     -1.045078   5 C  s                69      0.945881   5 C  pz        
    82      0.851226   6 C  px               32      0.795510   3 C  s         
    38      0.769661   3 C  py               48      0.681357   4 O  s         

 Vector   58  Occ=0.000000D+00  E= 5.575899D-01
              MO Center= -6.8D-01,  2.2D-01,  2.7D-03, r^2= 6.2D+00
   Bfn.  Coefficient  Atom+Function         Bfn.  Coefficient  Atom+Function  
  ----- ------------  ---------------      ----- ------------  ---------------
    63      2.713115   5 C  s                33     -1.702587   3 C  s         
    38      1.043408   3 C  py               68      0.944760   5 C  py        
   116      0.904155  13 H  s                39      0.839600   3 C  pz        
   117     -0.735850  13 H  s                 3      0.689266   1 C  s         
   119     -0.663553  14 H  s                62     -0.510458   5 C  s         

 Vector   59  Occ=0.000000D+00  E= 5.752365D-01
              MO Center=  3.0D-01, -2.8D-01, -1.3D-01, r^2= 6.4D+00
   Bfn.  Coefficient  Atom+Function         Bfn.  Coefficient  Atom+Function  
  ----- ------------  ---------------      ----- ------------  ---------------
    63      2.219197   5 C  s                78     -2.106227   6 C  s         
    37     -1.561477   3 C  px               67      1.279897   5 C  px        
    33     -1.269135   3 C  s                 3      0.897995   1 C  s         
    84      0.885827   6 C  pz               93      0.769715   7 C  s         
    68      0.691454   5 C  py               39      0.553314   3 C  pz        

 Vector   60  Occ=0.000000D+00  E= 5.998003D-01
              MO Center=  7.8D-02,  4.7D-01, -2.1D-01, r^2= 7.4D+00
   Bfn.  Coefficient  Atom+Function         Bfn.  Coefficient  Atom+Function  
  ----- ------------  ---------------      ----- ------------  ---------------
    63      1.302773   5 C  s                 3      0.971800   1 C  s         
    93     -0.882729   7 C  s                 9     -0.875759   1 C  pz        
    68     -0.859718   5 C  py                8      0.790849   1 C  py        
   109     -0.782181   9 H  s                37     -0.766049   3 C  px        
    97     -0.677227   7 C  px              112      0.585341  11 H  s         

 Vector   61  Occ=0.000000D+00  E= 6.090123D-01
              MO Center=  1.9D-01, -1.1D+00,  3.7D-01, r^2= 5.8D+00
   Bfn.  Coefficient  Atom+Function         Bfn.  Coefficient  Atom+Function  
  ----- ------------  ---------------      ----- ------------  ---------------
    93      3.163281   7 C  s                78      1.757498   6 C  s         
    39      1.738850   3 C  pz               69     -1.324836   5 C  pz        
   131     -1.119066  20 H  s                92     -0.882166   7 C  s         
    33     -0.823992   3 C  s               121     -0.808327  15 H  s         
    18      0.772355   2 N  s               115     -0.733250  12 H  s         

 Vector   62  Occ=0.000000D+00  E= 6.166101D-01
              MO Center=  5.6D-01, -1.1D+00, -2.1D-01, r^2= 6.4D+00
   Bfn.  Coefficient  Atom+Function         Bfn.  Coefficient  Atom+Function  
  ----- ------------  ---------------      ----- ------------  ---------------
    78      3.390870   6 C  s                33     -1.798826   3 C  s         
    93      1.627653   7 C  s                68      1.593807   5 C  py        
    63     -1.144717   5 C  s                77     -1.071885   6 C  s         
   123     -0.839509  16 H  s                67     -0.833257   5 C  px        
   129     -0.752845  19 H  s               125     -0.699735  17 H  s         

 Vector   63  Occ=0.000000D+00  E= 6.194649D-01
              MO Center=  3.3D-01,  1.4D+00,  5.9D-01, r^2= 6.6D+00
   Bfn.  Coefficient  Atom+Function         Bfn.  Coefficient  Atom+Function  
  ----- ------------  ---------------      ----- ------------  ---------------
     3      3.153531   1 C  s                78     -1.542932   6 C  s         
    93     -1.549950   7 C  s               107     -1.204102   8 H  s         
     2     -1.156814   1 C  s               111     -1.068375  10 H  s         
    33      1.042817   3 C  s                63      0.982972   5 C  s         
    68     -0.776491   5 C  py               69      0.761543   5 C  pz        

 Vector   64  Occ=0.000000D+00  E= 6.298921D-01
              MO Center=  2.0D-01,  2.0D-01,  1.7D-03, r^2= 8.1D+00
   Bfn.  Coefficient  Atom+Function         Bfn.  Coefficient  Atom+Function  
  ----- ------------  ---------------      ----- ------------  ---------------
     3      2.686261   1 C  s                33     -2.269185   3 C  s         
    63     -1.924470   5 C  s                68      1.502240   5 C  py        
   107     -0.964475   8 H  s                97      0.929193   7 C  px        
     2     -0.923459   1 C  s               109     -0.914988   9 H  s         
   115      0.673946  12 H  s                69     -0.650696   5 C  pz        

 Vector   65  Occ=0.000000D+00  E= 6.422449D-01
              MO Center=  4.5D-02,  3.3D-01, -1.3D-01, r^2= 8.9D+00
   Bfn.  Coefficient  Atom+Function         Bfn.  Coefficient  Atom+Function  
  ----- ------------  ---------------      ----- ------------  ---------------
    63      2.394615   5 C  s                93     -1.797428   7 C  s         
    78     -1.233706   6 C  s                33     -1.203477   3 C  s         
    39      1.207444   3 C  pz              109      1.190354   9 H  s         
     7      1.184221   1 C  px              119     -0.852641  14 H  s         
   111     -0.828441  10 H  s               123      0.832420  16 H  s         

 Vector   66  Occ=0.000000D+00  E= 6.478139D-01
              MO Center=  2.7D-01,  1.3D+00,  6.9D-02, r^2= 7.9D+00
   Bfn.  Coefficient  Atom+Function         Bfn.  Coefficient  Atom+Function  
  ----- ------------  ---------------      ----- ------------  ---------------
   111      1.641482  10 H  s                 3     -1.196890   1 C  s         
     9      1.087627   1 C  pz               93     -1.041813   7 C  s         
     7     -1.008509   1 C  px                8     -0.834473   1 C  py        
   127      0.744215  18 H  s                37      0.739421   3 C  px        
   107     -0.740501   8 H  s                67     -0.625578   5 C  px        

 Vector   67  Occ=0.000000D+00  E= 6.606545D-01
              MO Center= -2.6D-01,  3.1D-01,  9.3D-03, r^2= 8.1D+00
   Bfn.  Coefficient  Atom+Function         Bfn.  Coefficient  Atom+Function  
  ----- ------------  ---------------      ----- ------------  ---------------
    93     -1.743995   7 C  s                63      1.633442   5 C  s         
   109     -1.264738   9 H  s               127      1.006852  18 H  s         
   119     -0.890124  14 H  s               107      0.768754   8 H  s         
     9     -0.731482   1 C  pz               18     -0.675666   2 N  s         
    78     -0.659044   6 C  s                 7     -0.620084   1 C  px        

 Vector   68  Occ=0.000000D+00  E= 6.657461D-01
              MO Center=  5.9D-01, -1.6D+00,  5.3D-01, r^2= 5.4D+00
   Bfn.  Coefficient  Atom+Function         Bfn.  Coefficient  Atom+Function  
  ----- ------------  ---------------      ----- ------------  ---------------
    93      3.288601   7 C  s                78     -2.691112   6 C  s         
   121      1.524390  15 H  s               131     -1.278032  20 H  s         
    67      1.057270   5 C  px              129     -0.822573  19 H  s         
    92     -0.762143   7 C  s               123      0.761273  16 H  s         
    77      0.715694   6 C  s                63     -0.698092   5 C  s         

 Vector   69  Occ=0.000000D+00  E= 6.704799D-01
              MO Center=  5.1D-01,  1.3D-01,  1.8D-01, r^2= 6.4D+00
   Bfn.  Coefficient  Atom+Function         Bfn.  Coefficient  Atom+Function  
  ----- ------------  ---------------      ----- ------------  ---------------
    63      2.577460   5 C  s               115      1.342361  12 H  s         
    33     -1.177374   3 C  s                39     -1.128459   3 C  pz        
   107     -1.124318   8 H  s               125     -1.044535  17 H  s         
    82      0.956893   6 C  px              119     -0.838615  14 H  s         
    38      0.712959   3 C  py                9      0.678062   1 C  pz        

 Vector   70  Occ=0.000000D+00  E= 6.770160D-01
              MO Center=  1.1D-01, -7.8D-01, -5.9D-02, r^2= 7.6D+00
   Bfn.  Coefficient  Atom+Function         Bfn.  Coefficient  Atom+Function  
  ----- ------------  ---------------      ----- ------------  ---------------
     3      1.617121   1 C  s                67     -1.493204   5 C  px        
    98     -1.250243   7 C  py              129     -1.071456  19 H  s         
    93      0.985304   7 C  s               123      0.978188  16 H  s         
    83      0.745726   6 C  py               92     -0.664518   7 C  s         
   107     -0.626137   8 H  s               115      0.613881  12 H  s         

 Vector   71  Occ=0.000000D+00  E= 6.797845D-01
              MO Center=  3.2D-01, -1.2D-02,  2.0D-01, r^2= 8.1D+00
   Bfn.  Coefficient  Atom+Function         Bfn.  Coefficient  Atom+Function  
  ----- ------------  ---------------      ----- ------------  ---------------
    78      1.559464   6 C  s                 3      1.188632   1 C  s         
   125     -0.902888  17 H  s                33      0.729508   3 C  s         
   131      0.707855  20 H  s                82      0.685114   6 C  px        
    97      0.679513   7 C  px              110     -0.658794  10 H  s         
   127      0.650463  18 H  s                93     -0.598120   7 C  s         

 Vector   72  Occ=0.000000D+00  E= 6.915978D-01
              MO Center=  4.3D-01, -5.5D-01, -3.4D-01, r^2= 6.3D+00
[...]
    41      0.406572   3 C  dxy             100      0.405197   7 C  dxx       

 Vector  112  Occ=0.000000D+00  E= 2.355907D+00
              MO Center=  2.5D-01, -8.7D-01, -1.1D-01, r^2= 3.1D+00
   Bfn.  Coefficient  Atom+Function         Bfn.  Coefficient  Atom+Function  
  ----- ------------  ---------------      ----- ------------  ---------------
    63      2.036130   5 C  s                78     -1.119425   6 C  s         
    75     -0.712625   5 C  dzz              69      0.645353   5 C  pz        
    93     -0.629056   7 C  s                82      0.584695   6 C  px        
    38      0.522622   3 C  py               85     -0.515455   6 C  dxx       
   101     -0.500959   7 C  dxy              74     -0.494685   5 C  dyz       

 Vector  113  Occ=0.000000D+00  E= 2.401358D+00
              MO Center=  8.1D-02,  7.5D-01, -1.8D-01, r^2= 2.4D+00
   Bfn.  Coefficient  Atom+Function         Bfn.  Coefficient  Atom+Function  
  ----- ------------  ---------------      ----- ------------  ---------------
    18      1.348005   2 N  s                33     -1.048206   3 C  s         
    63      0.862814   5 C  s                29     -0.714084   2 N  dyz       
    25     -0.631620   2 N  dxx              37     -0.577636   3 C  px        
    93     -0.574778   7 C  s                56      0.562865   4 O  dxy       
    27     -0.538350   2 N  dxz              44     -0.489496   3 C  dyz       

 Vector  114  Occ=0.000000D+00  E= 2.451827D+00
              MO Center=  2.3D-01,  5.2D-01, -1.1D-01, r^2= 3.6D+00
   Bfn.  Coefficient  Atom+Function         Bfn.  Coefficient  Atom+Function  
  ----- ------------  ---------------      ----- ------------  ---------------
    18      1.166584   2 N  s                29      0.872681   2 N  dyz       
    93     -0.799565   7 C  s                27     -0.658608   2 N  dxz       
   101     -0.484768   7 C  dxy              68     -0.473404   5 C  py        
    72     -0.471926   5 C  dxz               3     -0.414777   1 C  s         
    38     -0.413831   3 C  py               67     -0.405224   5 C  px        

 Vector  115  Occ=0.000000D+00  E= 2.487005D+00
              MO Center=  1.3D-01,  6.2D-01, -1.7D-01, r^2= 3.3D+00
   Bfn.  Coefficient  Atom+Function         Bfn.  Coefficient  Atom+Function  
  ----- ------------  ---------------      ----- ------------  ---------------
    26      0.874398   2 N  dxy              18      0.746084   2 N  s         
    33     -0.711069   3 C  s                11      0.694989   1 C  dxy       
    71     -0.624625   5 C  dxy              29      0.474786   2 N  dyz       
    30      0.408529   2 N  dzz             101      0.388505   7 C  dxy       
   112     -0.389392  11 H  s                25     -0.380066   2 N  dxx       

 Vector  116  Occ=0.000000D+00  E= 2.542980D+00
              MO Center= -8.2D-01, -2.8D-01, -1.4D-01, r^2= 2.9D+00
   Bfn.  Coefficient  Atom+Function         Bfn.  Coefficient  Atom+Function  
  ----- ------------  ---------------      ----- ------------  ---------------
    93      0.943704   7 C  s                67      0.754305   5 C  px        
    71     -0.754323   5 C  dxy              78     -0.733527   6 C  s         
   101      0.650697   7 C  dxy              58     -0.630307   4 O  dyy       
    60      0.631949   4 O  dzz              72      0.588008   5 C  dxz       
    98      0.486356   7 C  py               82      0.458042   6 C  px        

 Vector  117  Occ=0.000000D+00  E= 2.556797D+00
              MO Center= -3.1D-01, -4.9D-01, -1.6D-01, r^2= 3.1D+00
   Bfn.  Coefficient  Atom+Function         Bfn.  Coefficient  Atom+Function  
  ----- ------------  ---------------      ----- ------------  ---------------
    33      2.058022   3 C  s                67      1.131569   5 C  px        
    78     -1.059186   6 C  s                63     -0.973174   5 C  s         
    18     -0.665682   2 N  s                70      0.656720   5 C  dxx       
    73     -0.634514   5 C  dyy              82      0.636366   6 C  px        
    38     -0.629268   3 C  py               93      0.631217   7 C  s         

 Vector  118  Occ=0.000000D+00  E= 2.638738D+00
              MO Center=  8.5D-02,  3.0D-01, -1.2D-01, r^2= 3.0D+00
   Bfn.  Coefficient  Atom+Function         Bfn.  Coefficient  Atom+Function  
  ----- ------------  ---------------      ----- ------------  ---------------
    33      1.328193   3 C  s                18     -1.015021   2 N  s         
    71      0.979684   5 C  dxy              68     -0.890008   5 C  py        
    27      0.872825   2 N  dxz              93     -0.832160   7 C  s         
    24     -0.798902   2 N  pz                3      0.646176   1 C  s         
    74     -0.635965   5 C  dyz             101     -0.555330   7 C  dxy       

 Vector  119  Occ=0.000000D+00  E= 2.742182D+00
              MO Center= -7.8D-01,  6.7D-01, -1.5D-01, r^2= 2.2D+00
   Bfn.  Coefficient  Atom+Function         Bfn.  Coefficient  Atom+Function  
  ----- ------------  ---------------      ----- ------------  ---------------
    57      1.177526   4 O  dxz              18     -1.016813   2 N  s         
    39     -0.578575   3 C  pz                3      0.508552   1 C  s         
    29     -0.475706   2 N  dyz              28     -0.429744   2 N  dyy       
    41      0.415068   3 C  dxy              74      0.403020   5 C  dyz       
    59      0.386470   4 O  dyz              30      0.343034   2 N  dzz       

 Vector  120  Occ=0.000000D+00  E= 2.777608D+00
              MO Center= -7.6D-01,  5.9D-01, -1.5D-01, r^2= 2.3D+00
   Bfn.  Coefficient  Atom+Function         Bfn.  Coefficient  Atom+Function  
  ----- ------------  ---------------      ----- ------------  ---------------
    59      1.318677   4 O  dyz              18      1.112968   2 N  s         
    38     -1.061007   3 C  py               33     -0.992898   3 C  s         
    48      0.743196   4 O  s                26      0.698171   2 N  dxy       
    63     -0.587038   5 C  s                78      0.588069   6 C  s         
    44      0.539121   3 C  dyz             116     -0.506093  13 H  s         

 Vector  121  Occ=0.000000D+00  E= 2.925240D+00
              MO Center= -4.9D-01,  8.3D-01, -1.3D-01, r^2= 2.3D+00
   Bfn.  Coefficient  Atom+Function         Bfn.  Coefficient  Atom+Function  
  ----- ------------  ---------------      ----- ------------  ---------------
    56      0.898552   4 O  dxy               3      0.746734   1 C  s         
    28     -0.672977   2 N  dyy              39      0.604119   3 C  pz        
    23     -0.555793   2 N  py               25      0.540024   2 N  dxx       
    57     -0.518136   4 O  dxz              14      0.456777   1 C  dyz       
     8     -0.440141   1 C  py               33     -0.425729   3 C  s         

 Vector  122  Occ=0.000000D+00  E= 2.936148D+00
              MO Center= -1.1D+00,  4.8D-01, -1.6D-01, r^2= 1.8D+00
   Bfn.  Coefficient  Atom+Function         Bfn.  Coefficient  Atom+Function  
  ----- ------------  ---------------      ----- ------------  ---------------
    56      1.144004   4 O  dxy              48     -0.970573   4 O  s         
    59     -0.912293   4 O  dyz              18      0.767928   2 N  s         
   116      0.651920  13 H  s                37     -0.620629   3 C  px        
    93     -0.560119   7 C  s                78      0.535553   6 C  s         
    42      0.528186   3 C  dxz              71      0.496731   5 C  dxy       

 Vector  123  Occ=0.000000D+00  E= 3.008625D+00
              MO Center=  1.3D-01,  8.9D-01, -1.1D-01, r^2= 2.0D+00
   Bfn.  Coefficient  Atom+Function         Bfn.  Coefficient  Atom+Function  
  ----- ------------  ---------------      ----- ------------  ---------------
    23      1.399546   2 N  py               33      1.394239   3 C  s         
    26     -1.289921   2 N  dxy              41      1.201525   3 C  dxy       
    29      1.048841   2 N  dyz              18     -0.890848   2 N  s         
     3     -0.885682   1 C  s                38      0.791364   3 C  py        
    93      0.622699   7 C  s                22      0.565582   2 N  px        

 Vector  124  Occ=0.000000D+00  E= 3.273983D+00
              MO Center= -1.2D+00,  4.1D-01, -9.7D-02, r^2= 1.2D+00
   Bfn.  Coefficient  Atom+Function         Bfn.  Coefficient  Atom+Function  
  ----- ------------  ---------------      ----- ------------  ---------------
    48      1.601281   4 O  s                52      1.043429   4 O  px        
    37      0.950145   3 C  px               55      0.856782   4 O  dxx       
    57      0.837320   4 O  dxz              33     -0.611312   3 C  s         
    42     -0.606303   3 C  dxz              32     -0.596979   3 C  s         
    43      0.566755   3 C  dyy              58     -0.550304   4 O  dyy       

 Vector  125  Occ=0.000000D+00  E= 4.828886D+00
              MO Center=  2.0D-01, -1.4D+00, -1.6D-02, r^2= 2.0D+00
   Bfn.  Coefficient  Atom+Function         Bfn.  Coefficient  Atom+Function  
  ----- ------------  ---------------      ----- ------------  ---------------
    62      2.276885   5 C  s                92      2.224782   7 C  s         
    77      2.189154   6 C  s                32      1.275478   3 C  s         
    75     -1.102620   5 C  dzz              73     -1.048383   5 C  dyy       
    70     -1.000138   5 C  dxx             105     -0.978427   7 C  dzz       
    88     -0.973167   6 C  dyy              90     -0.969266   6 C  dzz       

 Vector  126  Occ=0.000000D+00  E= 4.928406D+00
              MO Center=  4.5D-01,  2.4D+00,  2.0D-01, r^2= 1.1D+00
   Bfn.  Coefficient  Atom+Function         Bfn.  Coefficient  Atom+Function  
  ----- ------------  ---------------      ----- ------------  ---------------
     2      4.068310   1 C  s                13     -1.867165   1 C  dyy       
    15     -1.777575   1 C  dzz              10     -1.766976   1 C  dxx       
     1     -0.929319   1 C  s                77     -0.709332   6 C  s         
    18      0.637307   2 N  s                17      0.439680   2 N  s         
    33     -0.381748   3 C  s                25     -0.370072   2 N  dxx       

 Vector  127  Occ=0.000000D+00  E= 4.953471D+00
              MO Center=  3.4D-01, -1.8D+00,  1.3D-01, r^2= 2.4D+00
   Bfn.  Coefficient  Atom+Function         Bfn.  Coefficient  Atom+Function  
  ----- ------------  ---------------      ----- ------------  ---------------
    92     -2.978990   7 C  s                77      2.933591   6 C  s         
    85     -1.352699   6 C  dxx             103      1.350570   7 C  dyy       
   100      1.328393   7 C  dxx             105      1.314135   7 C  dzz       
    88     -1.290220   6 C  dyy              90     -1.290776   6 C  dzz       
    91      0.683688   7 C  s                76     -0.673455   6 C  s         

 Vector  128  Occ=0.000000D+00  E= 5.026468D+00
              MO Center= -8.4D-02, -2.8D-01,  1.5D-01, r^2= 2.2D+00
   Bfn.  Coefficient  Atom+Function         Bfn.  Coefficient  Atom+Function  
  ----- ------------  ---------------      ----- ------------  ---------------
    32      3.320716   3 C  s                40     -1.613625   3 C  dxx       
    43     -1.524161   3 C  dyy              92     -1.524575   7 C  s         
    77     -1.492820   6 C  s                45     -1.471740   3 C  dzz       
    62      0.866688   5 C  s                31     -0.766879   3 C  s         
    85      0.734564   6 C  dxx             100      0.711120   7 C  dxx       

 Vector  129  Occ=0.000000D+00  E= 5.205496D+00
              MO Center=  9.1D-02, -9.6D-01, -1.4D-01, r^2= 1.5D+00
   Bfn.  Coefficient  Atom+Function         Bfn.  Coefficient  Atom+Function  
  ----- ------------  ---------------      ----- ------------  ---------------
    62      3.353841   5 C  s                32     -1.912492   3 C  s         
    73     -1.625748   5 C  dyy              70     -1.608347   5 C  dxx       
    75     -1.439767   5 C  dzz              77     -1.331977   6 C  s         
    92     -1.325417   7 C  s                43      0.955328   3 C  dyy       
    40      0.853345   3 C  dxx              45      0.772328   3 C  dzz       

 Vector  130  Occ=0.000000D+00  E= 5.594335D+00
              MO Center=  6.0D-01,  1.3D+00, -2.6D-01, r^2= 7.5D-01
   Bfn.  Coefficient  Atom+Function         Bfn.  Coefficient  Atom+Function  
  ----- ------------  ---------------      ----- ------------  ---------------
    17      2.940094   2 N  s                28     -1.738087   2 N  dyy       
    18      1.705555   2 N  s                25     -1.632324   2 N  dxx       
    30     -1.586741   2 N  dzz              33     -0.978115   3 C  s         
    32     -0.910811   3 C  s                16      0.821745   2 N  s         
     2     -0.772828   1 C  s                 3     -0.611760   1 C  s         

 Vector  131  Occ=0.000000D+00  E= 6.008986D+00
              MO Center= -1.6D+00,  4.7D-01, -1.9D-01, r^2= 6.1D-01
   Bfn.  Coefficient  Atom+Function         Bfn.  Coefficient  Atom+Function  
  ----- ------------  ---------------      ----- ------------  ---------------
    47      2.221457   4 O  s                48      2.228930   4 O  s         
    33     -1.794914   3 C  s                60     -1.542595   4 O  dzz       
    55     -1.528643   4 O  dxx              58     -1.534051   4 O  dyy       
    46      0.757448   4 O  s                63      0.711797   5 C  s         
    52      0.434191   4 O  px               32     -0.387994   3 C  s         


 center of mass
 --------------
 x =  -0.06038220 y =   0.00074426 z =  -0.02563123

 moments of inertia (a.u.)
 ------------------
        1019.880175987545         -17.315213087588          -2.172801311824
         -17.315213087588         457.447725008969          -0.108237929805
          -2.172801311824          -0.108237929805        1369.295269649459

     Multipole analysis of the density
     ---------------------------------

     L   x y z        total         alpha         beta         nuclear
     -   - - -        -----         -----         ----         -------
     0   0 0 0     -0.000000    -29.000000    -29.000000     58.000000

     1   1 0 0     -0.079217      0.526017      0.526017     -1.131251
     1   0 1 0      0.691186      1.065525      1.065525     -1.439865
     1   0 0 1      0.234575      0.101023      0.101023      0.032530

     2   2 0 0    -36.399930   -139.148426   -139.148426    241.896921
     2   1 1 0     -2.075504     -5.749081     -5.749081      9.422658
     2   1 0 1     -2.209686     -0.463172     -0.463172     -1.283343
     2   0 2 0    -31.102975   -310.124472   -310.124472    589.145969
     2   0 1 1      0.459202     -0.466756     -0.466756      1.392714
     2   0 0 2    -32.625243    -39.281602    -39.281602     45.937960


------------------------------------------------------------
EAF file 3: "/data/EMPTY.aoints.0" size=207618048 bytes
------------------------------------------------------------
               write      read    awrite     aread      wait
               -----      ----    ------     -----      ----
     calls:      454         7         0      2427      2427
   data(b): 2.38e+08  3.67e+06  0.00e+00  1.27e+09
   time(s): 0.00e+00  0.00e+00  0.00e+00  0.00e+00  0.00e+00
rate(mb/s): 0.00e+00  0.00e+00
------------------------------------------------------------


 Parallel integral file used     791 records with       0 large values


 Task  times  cpu:       20.2s     wall:       20.2s


                                NWChem Input Module
                                -------------------


 Summary of allocated global arrays
-----------------------------------
  No active global arrays


MA_summarize_allocated_blocks: starting scan ...
MA_summarize_allocated_blocks: scan completed: 0 heap blocks, 0 stack blocks
MA usage statistics:

	allocation statistics:
					      heap	     stack
					      ----	     -----
	current number of blocks	         0	         0
	maximum number of blocks	        24	        61
	current total bytes		         0	         0
	maximum total bytes		  13913016	  85089160
	maximum total K-bytes		     13914	     85090
	maximum total M-bytes		        14	        86


                                     CITATION
                                     --------
                Please cite the following reference when publishing
                           results obtained with NWChem:

          E. Apra, E. J. Bylaska, W. A. de Jong, N. Govind, K. Kowalski,
       T. P. Straatsma, M. Valiev, H. J. J. van Dam, Y. Alexeev, J. Anchell,
       V. Anisimov, F. W. Aquino, R. Atta-Fynn, J. Autschbach, N. P. Bauman,
     J. C. Becca, D. E. Bernholdt, K. Bhaskaran-Nair, S. Bogatko, P. Borowski,
         J. Boschen, J. Brabec, A. Bruner, E. Cauet, Y. Chen, G. N. Chuev,
      C. J. Cramer, J. Daily, M. J. O. Deegan, T. H. Dunning Jr., M. Dupuis,
   K. G. Dyall, G. I. Fann, S. A. Fischer, A. Fonari, H. Fruchtl, L. Gagliardi,
      J. Garza, N. Gawande, S. Ghosh, K. Glaesemann, A. W. Gotz, J. Hammond,
       V. Helms, E. D. Hermes, K. Hirao, S. Hirata, M. Jacquelin, L. Jensen,
   B. G. Johnson, H. Jonsson, R. A. Kendall, M. Klemm, R. Kobayashi, V. Konkov,
      S. Krishnamoorthy, M. Krishnan, Z. Lin, R. D. Lins, R. J. Littlefield,
      A. J. Logsdail, K. Lopata, W. Ma, A. V. Marenich, J. Martin del Campo,
   D. Mejia-Rodriguez, J. E. Moore, J. M. Mullin, T. Nakajima, D. R. Nascimento,
    J. A. Nichols, P. J. Nichols, J. Nieplocha, A. Otero-de-la-Roza, B. Palmer,
    A. Panyala, T. Pirojsirikul, B. Peng, R. Peverati, J. Pittner, L. Pollack,
   R. M. Richard, P. Sadayappan, G. C. Schatz, W. A. Shelton, D. W. Silverstein,
   D. M. A. Smith, T. A. Soares, D. Song, M. Swart, H. L. Taylor, G. S. Thomas,
            V. Tipparaju, D. G. Truhlar, K. Tsemekhman, T. Van Voorhis,
      A. Vazquez-Mayagoitia, P. Verma, O. Villa, A. Vishnu, K. D. Vogiatzis,
        D. Wang, J. H. Weare, M. J. Williamson, T. L. Windus, K. Wolinski,
        A. T. Wong, Q. Wu, C. Yang, Q. Yu, M. Zacharias, Z. Zhang, Y. Zhao,
                                and R. J. Harrison
                        "NWChem: Past, present, and future
                         J. Chem. Phys. 152, 184102 (2020)
                               doi:10.1063/5.0004997

                                      AUTHORS
                                      -------
  E. Apra, E. J. Bylaska, N. Govind, K. Kowalski, M. Valiev, D. Mejia-Rodriguez,
       A. Kunitsa, N. P. Bauman, A. Panyala, W. A. de Jong, T. P. Straatsma,
   H. J. J. van Dam, D. Wang, T. L. Windus, J. Hammond, J. Autschbach, A. Woods,
    K. Bhaskaran-Nair, J. Brabec, K. Lopata, S. A. Fischer, S. Krishnamoorthy,
     M. Jacquelin, W. Ma, M. Klemm, O. Villa, Y. Chen, V. Anisimov, F. Aquino,
     S. Hirata, M. T. Hackler, E. Hermes, L. Jensen, J. E. Moore, J. C. Becca,
      V. Konjkov, T. Risthaus, M. Malagoli, A. Marenich, A. Otero-de-la-Roza,
        J. Mullin, P. Nichols, R. Peverati, J. Pittner, Y. Zhao, P.-D. Fan,
        A. Fonari, M. J. Williamson, R. J. Harrison, J. R. Rehr, M. Dupuis,
     D. Silverstein, D. M. A. Smith, J. Nieplocha, V. Tipparaju, M. Krishnan,
     B. E. Van Kuiken, A. Vazquez-Mayagoitia, M. Swart, Q. Wu, T. Van Voorhis,
     A. A. Auer, M. Nooijen, L. D. Crosby, E. Brown, G. Cisneros, G. I. Fann,
   H. Fruchtl, J. Garza, K. Hirao, R. A. Kendall, J. A. Nichols, K. Tsemekhman,
    K. Wolinski, J. Anchell, D. E. Bernholdt, P. Borowski, T. Clark, D. Clerc,
   H. Dachsel, M. J. O. Deegan, K. Dyall, D. Elwood, E. Glendening, M. Gutowski,
   A. C. Hess, J. Jaffe, B. G. Johnson, J. Ju, R. Kobayashi, R. Kutteh, Z. Lin,
   R. Littlefield, X. Long, B. Meng, T. Nakajima, S. Niu, L. Pollack, M. Rosing,
   K. Glaesemann, G. Sandrone, M. Stave, H. Taylor, G. Thomas, J. H. van Lenthe,
                               A. T. Wong, Z. Zhang.

 Total times  cpu:      562.1s     wall:      562.1s
