 argument  1 = react_4.nw
  NWChem w/ OpenMP: maximum threads =    1
                                         
                                         


             Northwest Computational Chemistry Package (NWChem) 7.2.3
             --------------------------------------------------------


                    Environmental Molecular Sciences Laboratory
                       Pacific Northwest National Laboratory
                                Richland, WA 99352

                              Copyright (c) 1994-2022
                       Pacific Northwest National Laboratory
                            Battelle Memorial Institute

             NWChem is an open-source computational chemistry package
                        distributed under the terms of the
                      Educational Community License (ECL) 2.0
             A copy of the license is included with this distribution
                              in the LICENSE.TXT file

                                  ACKNOWLEDGMENT
                                  --------------

            This software and its documentation were developed at the
            EMSL at Pacific Northwest National Laboratory, a multiprogram
            national laboratory, operated for the U.S. Department of Energy
            by Battelle under Contract Number DE-AC05-76RL01830. Support
            for this work was provided by the Department of Energy Office
            of Biological and Environmental Research, Office of Basic
            Energy Sciences, and the Office of Advanced Scientific Computing.


           Job information
           ---------------

    hostname        = c560f9708f97
    program         = nwchem
    date            = Fri Sep 12 17:53:35 2025

    compiled        = Fri_Jul_11_19:03:44_2025
    source          = /opt/nwchem
    nwchem branch   = 7.2.3
    nwchem revision = N/A
    ga revision     = 5.9.2
    use scalapack   = T
    input           = react_4.nw
    prefix          = EMPTY.
    data base       = /data/EMPTY.db
    status          = startup
    nproc           =        2
    time left       =     -1s



           Memory information
           ------------------

    heap     =     16777212 doubles =      128.0 Mbytes
    stack    =     16777217 doubles =      128.0 Mbytes
    global   =     33554432 doubles =      256.0 Mbytes (distinct from heap & stack)
    total    =     67108861 doubles =      512.0 Mbytes
    verify   = yes
    hardfail = no 


           Directory information
           ---------------------

  0 permanent = /data
  0 scratch   = /data




                                NWChem Input Module
                                -------------------


                                   react_4_redox
                                   -------------

 Scaling coordinates for geometry "geometry" by  1.889725989
 (inverse scale =  0.529177249)

 C1  symmetry detected

          ------
          auto-z
          ------
  no constraints, skipping    0.0000000000000000     
  no constraints, skipping    0.0000000000000000     


                             Geometry "geometry" -> ""
                             -------------------------

 Output coordinates in angstroms (scale by  1.889725989 to convert to a.u.)

  No.       Tag          Charge          X              Y              Z
 ---- ---------------- ---------- -------------- -------------- --------------
    1 C                    6.0000     1.21490387     1.65298054     0.56739749
    2 C                    6.0000    -0.17617183     1.08169016     0.28319980
    3 C                    6.0000    -1.13633210     2.21779574    -0.07547665
    4 C                    6.0000    -0.14679088     0.04372518    -0.85002554
    5 N                    7.0000     0.71057506    -1.08717582    -0.55581983
    6 C                    6.0000     0.26705241    -2.18918303     0.12675281
    7 O                    8.0000    -0.87019328    -2.37113631     0.53480211
    8 H                    1.0000     1.63568655     2.13385826    -0.32220759
    9 H                    1.0000     1.90771996     0.86953288     0.89052275
   10 H                    1.0000     1.17026906     2.40057082     1.36668112
   11 H                    1.0000    -0.53980735     0.60067207     1.20009258
   12 H                    1.0000    -0.81226291     2.73886846    -0.98351495
   13 H                    1.0000    -2.14789124     1.83600257    -0.24721928
   14 H                    1.0000    -1.18931724     2.95377454     0.73394593
   15 H                    1.0000    -1.16012210    -0.32942537    -1.03921900
   16 H                    1.0000     0.22380296     0.49233961    -1.77790159
   17 H                    1.0000     1.69155012    -1.03186769    -0.79606745
   18 H                    1.0000     1.07192420    -2.92705647     0.27612201

      Atomic Mass 
      ----------- 

      C                 12.000000
      N                 14.003070
      O                 15.994910
      H                  1.007825


 Effective nuclear repulsion energy (a.u.)     313.9114448247

            Nuclear Dipole moment (a.u.) 
            ----------------------------
        X                 Y               Z
 ---------------- ---------------- ----------------
     0.0000000000    -0.0000000000    -0.0000000000



                                Z-matrix (autoz)
                                -------- 

 Units are Angstrom for bonds and degrees for angles

      Type          Name      I     J     K     L     M      Value
      ----------- --------  ----- ----- ----- ----- ----- ----------
    1 Stretch                  1     2                       1.53044
    2 Stretch                  1     8                       1.09531
    3 Stretch                  1     9                       1.09462
    4 Stretch                  1    10                       1.09533
    5 Stretch                  2     3                       1.53013
    6 Stretch                  2     4                       1.53702
    7 Stretch                  2    11                       1.09741
    8 Stretch                  3    12                       1.09593
    9 Stretch                  3    13                       1.09477
   10 Stretch                  3    14                       1.09528
   11 Stretch                  4     5                       1.44933
   12 Stretch                  4    15                       1.09630
   13 Stretch                  4    16                       1.09524
   14 Stretch                  5     6                       1.37005
   15 Stretch                  5    17                       1.01148
   16 Stretch                  6     7                       1.22186
   17 Stretch                  6    18                       1.10208
   18 Bend                     1     2     3               109.67784
   19 Bend                     1     2     4               111.81562
   20 Bend                     1     2    11               108.03837
   21 Bend                     2     1     8               111.23840
   22 Bend                     2     1     9               111.28090
   23 Bend                     2     1    10               110.68599
   24 Bend                     2     3    12               111.20410
   25 Bend                     2     3    13               110.95559
   26 Bend                     2     3    14               110.85753
   27 Bend                     2     4     5               112.86621
   28 Bend                     2     4    15               109.84183
   29 Bend                     2     4    16               110.76163
   30 Bend                     3     2     4               109.91215
   31 Bend                     3     2    11               108.26260
   32 Bend                     4     2    11               109.04679
   33 Bend                     4     5     6               122.49732
   34 Bend                     4     5    17               118.87081
   35 Bend                     5     4    15               108.43513
   36 Bend                     5     4    16               106.94298
   37 Bend                     5     6     7               125.97776
   38 Bend                     5     6    18               111.69323
   39 Bend                     6     5    17               118.44287
   40 Bend                     7     6    18               122.32895
   41 Bend                     8     1     9               108.10941
   42 Bend                     8     1    10               107.97969
   43 Bend                     9     1    10               107.39064
   44 Bend                    12     3    13               108.00262
   45 Bend                    12     3    14               107.88607
   46 Bend                    13     3    14               107.79271
   47 Bend                    15     4    16               107.81679
   48 Torsion                  1     2     3    12          61.84733
   49 Torsion                  1     2     3    13        -177.91679
   50 Torsion                  1     2     3    14         -58.17563
   51 Torsion                  1     2     4     5          59.93759
   52 Torsion                  1     2     4    15        -178.92857
   53 Torsion                  1     2     4    16         -59.93760
   54 Torsion                  2     4     5     6          87.11666
   55 Torsion                  2     4     5    17         -87.80625
   56 Torsion                  3     2     1     8         -63.08532
   57 Torsion                  3     2     1     9         176.29993
   58 Torsion                  3     2     1    10          56.96384
   59 Torsion                  3     2     4     5        -178.00508
   60 Torsion                  3     2     4    15         -56.87124
   61 Torsion                  3     2     4    16          62.11973
   62 Torsion                  4     2     1     8          59.10632
   63 Torsion                  4     2     1     9         -61.50843
   64 Torsion                  4     2     1    10         179.15548
   65 Torsion                  4     2     3    12         -61.47204
   66 Torsion                  4     2     3    13          58.76384
   67 Torsion                  4     2     3    14         178.50500
   68 Torsion                  4     5     6     7           1.70156
   69 Torsion                  4     5     6    18        -178.38625
   70 Torsion                  5     4     2    11         -59.47233
   71 Torsion                  6     5     4    15         -34.81284
   72 Torsion                  6     5     4    16        -150.83435
   73 Torsion                  7     6     5    17         176.64522
   74 Torsion                  8     1     2    11         179.10909
   75 Torsion                  9     1     2    11          58.49435
   76 Torsion                 10     1     2    11         -60.84174
   77 Torsion                 11     2     3    12         179.51311
   78 Torsion                 11     2     3    13         -60.25101
   79 Torsion                 11     2     3    14          59.49015
   80 Torsion                 11     2     4    15          61.66151
   81 Torsion                 11     2     4    16        -179.34751
   82 Torsion                 15     4     5    17         150.26425
   83 Torsion                 16     4     5    17          34.24273
   84 Torsion                 17     5     6    18          -3.44260


            XYZ format geometry
            -------------------
    18
 geometry
 C                     1.21490387     1.65298054     0.56739749
 C                    -0.17617183     1.08169016     0.28319980
 C                    -1.13633210     2.21779574    -0.07547665
 C                    -0.14679088     0.04372518    -0.85002554
 N                     0.71057506    -1.08717582    -0.55581983
 C                     0.26705241    -2.18918303     0.12675281
 O                    -0.87019328    -2.37113631     0.53480211
 H                     1.63568655     2.13385826    -0.32220759
 H                     1.90771996     0.86953288     0.89052275
 H                     1.17026906     2.40057082     1.36668112
 H                    -0.53980735     0.60067207     1.20009258
 H                    -0.81226291     2.73886846    -0.98351495
 H                    -2.14789124     1.83600257    -0.24721928
 H                    -1.18931724     2.95377454     0.73394593
 H                    -1.16012210    -0.32942537    -1.03921900
 H                     0.22380296     0.49233961    -1.77790159
 H                     1.69155012    -1.03186769    -0.79606745
 H                     1.07192420    -2.92705647     0.27612201

 ==============================================================================
                                internuclear distances
 ------------------------------------------------------------------------------
       center one      |      center two      | atomic units |  angstroms
 ------------------------------------------------------------------------------
    2 C                |   1 C                |     2.89210  |     1.53044
    3 C                |   2 C                |     2.89152  |     1.53013
    4 C                |   2 C                |     2.90455  |     1.53702
    5 N                |   4 C                |     2.73885  |     1.44933
    6 C                |   5 N                |     2.58902  |     1.37005
    7 O                |   6 C                |     2.30898  |     1.22186
    8 H                |   1 C                |     2.06983  |     1.09531
    9 H                |   1 C                |     2.06853  |     1.09462
   10 H                |   1 C                |     2.06986  |     1.09533
   11 H                |   2 C                |     2.07380  |     1.09741
   12 H                |   3 C                |     2.07101  |     1.09593
   13 H                |   3 C                |     2.06881  |     1.09477
   14 H                |   3 C                |     2.06978  |     1.09528
   15 H                |   4 C                |     2.07171  |     1.09630
   16 H                |   4 C                |     2.06970  |     1.09524
   17 H                |   5 N                |     1.91142  |     1.01148
   18 H                |   6 C                |     2.08263  |     1.10208
 ------------------------------------------------------------------------------
                         number of included internuclear distances:         17
 ==============================================================================



 ==============================================================================
                                 internuclear angles
 ------------------------------------------------------------------------------
        center 1       |       center 2       |       center 3       |  degrees
 ------------------------------------------------------------------------------
    2 C                |   1 C                |   8 H                |   111.24
    2 C                |   1 C                |   9 H                |   111.28
    2 C                |   1 C                |  10 H                |   110.69
    8 H                |   1 C                |   9 H                |   108.11
    8 H                |   1 C                |  10 H                |   107.98
    9 H                |   1 C                |  10 H                |   107.39
    1 C                |   2 C                |   3 C                |   109.68
    1 C                |   2 C                |   4 C                |   111.82
    1 C                |   2 C                |  11 H                |   108.04
    3 C                |   2 C                |   4 C                |   109.91
    3 C                |   2 C                |  11 H                |   108.26
    4 C                |   2 C                |  11 H                |   109.05
    2 C                |   3 C                |  12 H                |   111.20
    2 C                |   3 C                |  13 H                |   110.96
    2 C                |   3 C                |  14 H                |   110.86
   12 H                |   3 C                |  13 H                |   108.00
   12 H                |   3 C                |  14 H                |   107.89
   13 H                |   3 C                |  14 H                |   107.79
    2 C                |   4 C                |   5 N                |   112.87
    2 C                |   4 C                |  15 H                |   109.84
    2 C                |   4 C                |  16 H                |   110.76
    5 N                |   4 C                |  15 H                |   108.44
    5 N                |   4 C                |  16 H                |   106.94
   15 H                |   4 C                |  16 H                |   107.82
    4 C                |   5 N                |   6 C                |   122.50
    4 C                |   5 N                |  17 H                |   118.87
    6 C                |   5 N                |  17 H                |   118.44
    5 N                |   6 C                |   7 O                |   125.98
    5 N                |   6 C                |  18 H                |   111.69
    7 O                |   6 C                |  18 H                |   122.33
 ------------------------------------------------------------------------------
                            number of included internuclear angles:         30
 ==============================================================================





 Summary of "ao basis" -> "" (cartesian)
 ------------------------------------------------------------------------------
       Tag                 Description            Shells   Functions and Types
 ---------------- ------------------------------  ------  ---------------------
 *                         def2-SV(P)                 on all atoms 


  pbe96 is a nonlocal functional; adding pw91lda local functional. 


                           NWChem Geometry Optimization
                           ----------------------------




                                   react_4_redox


  no constraints, skipping    0.0000000000000000     
 maximum gradient threshold         (gmax) =   0.000450
 rms gradient threshold             (grms) =   0.000300
 maximum cartesian step threshold   (xmax) =   0.001800
 rms cartesian step threshold       (xrms) =   0.001200
 fixed trust radius                (trust) =   0.300000
 maximum step size to saddle      (sadstp) =   0.100000
 energy precision                  (eprec) =   5.0D-06
 maximum number of steps          (nptopt) =  300
 initial hessian option           (inhess) =    0
 line search option               (linopt) =    1
 hessian update option            (modupd) =    1
 saddle point option              (modsad) =    0
 initial eigen-mode to follow     (moddir) =    0
 initial variable to follow       (vardir) =    0
 follow first negative mode     (firstneg) =    T
 apply conjugacy                    (opcg) =    F
 source of zmatrix                         =   autoz   


          -------------------
          Energy Minimization
          -------------------


 Names of Z-matrix variables 
    1              2              3              4              5         
    6              7              8              9             10         
   11             12             13             14             15         
   16             17             18             19             20         
   21             22             23             24             25         
   26             27             28             29             30         
   31             32             33             34             35         
   36             37             38             39             40         
   41             42             43             44             45         
   46             47             48             49             50         
   51             52             53             54             55         
   56             57             58             59             60         
   61             62             63             64             65         
   66             67             68             69             70         
   71             72             73             74             75         
   76             77             78             79             80         
   81             82             83             84         

 Variables with the same non-blank name are constrained to be equal


 Using diagonal initial Hessian 
 Scaling for Hessian diagonals: bonds = 1.00  angles = 0.25  torsions = 0.10

          --------
          Step   0
          --------


                         Geometry "geometry" -> "geometry"
                         ---------------------------------

 Output coordinates in angstroms (scale by  1.889725989 to convert to a.u.)

  No.       Tag          Charge          X              Y              Z
 ---- ---------------- ---------- -------------- -------------- --------------
    1 C                    6.0000     1.21490387     1.65298054     0.56739749
    2 C                    6.0000    -0.17617183     1.08169016     0.28319980
    3 C                    6.0000    -1.13633210     2.21779574    -0.07547665
    4 C                    6.0000    -0.14679088     0.04372518    -0.85002554
    5 N                    7.0000     0.71057506    -1.08717582    -0.55581983
    6 C                    6.0000     0.26705241    -2.18918303     0.12675281
    7 O                    8.0000    -0.87019328    -2.37113631     0.53480211
    8 H                    1.0000     1.63568655     2.13385826    -0.32220759
    9 H                    1.0000     1.90771996     0.86953288     0.89052275
   10 H                    1.0000     1.17026906     2.40057082     1.36668112
   11 H                    1.0000    -0.53980735     0.60067207     1.20009258
   12 H                    1.0000    -0.81226291     2.73886846    -0.98351495
   13 H                    1.0000    -2.14789124     1.83600257    -0.24721928
   14 H                    1.0000    -1.18931724     2.95377454     0.73394593
   15 H                    1.0000    -1.16012210    -0.32942537    -1.03921900
   16 H                    1.0000     0.22380296     0.49233961    -1.77790159
   17 H                    1.0000     1.69155012    -1.03186769    -0.79606745
   18 H                    1.0000     1.07192420    -2.92705647     0.27612201

      Atomic Mass 
      ----------- 

      C                 12.000000
      N                 14.003070
      O                 15.994910
      H                  1.007825


 Effective nuclear repulsion energy (a.u.)     313.9114448247

            Nuclear Dipole moment (a.u.) 
            ----------------------------
        X                 Y               Z
 ---------------- ---------------- ----------------
     0.0000000000    -0.0000000000    -0.0000000000


                                 NWChem DFT Module
                                 -----------------


                                   react_4_redox


                      Basis "ao basis" -> "ao basis" (cartesian)
                      -----
  C (Carbon)
  ----------
            Exponent  Coefficients 
       -------------- ---------------------------------------------------------
  1 S  1.23840169E+03  0.005457
  1 S  1.86290050E+02  0.040638
  1 S  4.22511763E+01  0.180256
  1 S  1.16765579E+01  0.463151
  1 S  3.59305065E+00  0.440872

  2 S  4.02451474E-01  1.000000

  3 S  1.30901827E-01  1.000000

  4 P  9.46809706E+00  0.038388
  4 P  2.01035451E+00  0.211170
  4 P  5.47710047E-01  0.513282

  5 P  1.52686138E-01  1.000000

  6 D  8.00000000E-01  1.000000

  N (Nitrogen)
  ------------
            Exponent  Coefficients 
       -------------- ---------------------------------------------------------
  1 S  1.71284159E+03 -0.005393
  1 S  2.57648127E+02 -0.040222
  1 S  5.84582459E+01 -0.179311
  1 S  1.61983679E+01 -0.463763
  1 S  5.00526008E+00 -0.441714

  2 S  5.87318566E-01  1.000000

  3 S  1.87645923E-01  1.000000

  4 P  1.35714702E+01 -0.040072
  4 P  2.92573729E+00 -0.218070
  4 P  7.99277508E-01 -0.512945

  5 P  2.19543480E-01  1.000000

  6 D  1.00000000E+00  1.000000

  O (Oxygen)
  ----------
            Exponent  Coefficients 
       -------------- ---------------------------------------------------------
  1 S  2.26617678E+03 -0.005343
  1 S  3.40870102E+02 -0.039890
  1 S  7.73631352E+01 -0.178539
  1 S  2.14796449E+01 -0.464277
  1 S  6.65894331E+00 -0.443097

  2 S  8.09759757E-01  1.000000

  3 S  2.55307722E-01  1.000000

  4 P  1.77215043E+01  0.043395
  4 P  3.86355054E+00  0.230941
  4 P  1.04809209E+00  0.513753

  5 P  2.76415444E-01  1.000000

  6 D  1.20000000E+00  1.000000

  H (Hydrogen)
  ------------
            Exponent  Coefficients 
       -------------- ---------------------------------------------------------
  1 S  1.30107010E+01  0.019682
  1 S  1.96225720E+00  0.137965
  1 S  4.44537960E-01  0.478319

  2 S  1.21949620E-01  1.000000



 Summary of "ao basis" -> "ao basis" (cartesian)
 ------------------------------------------------------------------------------
       Tag                 Description            Shells   Functions and Types
 ---------------- ------------------------------  ------  ---------------------
 C                         def2-SV(P)                6       15   3s2p1d
 N                         def2-SV(P)                6       15   3s2p1d
 O                         def2-SV(P)                6       15   3s2p1d
 H                         def2-SV(P)                2        2   2s




 Summary of "ao basis" -> "ao basis" (cartesian)
 ------------------------------------------------------------------------------
       Tag                 Description            Shells   Functions and Types
 ---------------- ------------------------------  ------  ---------------------
 C                         def2-SV(P)                6       15   3s2p1d
 N                         def2-SV(P)                6       15   3s2p1d
 O                         def2-SV(P)                6       15   3s2p1d
 H                         def2-SV(P)                2        2   2s


  Caching 1-el integrals 

            General Information
            -------------------
          SCF calculation type: DFT
          Wavefunction type:  closed shell.
          No. of atoms     :    18
          No. of electrons :    56
           Alpha electrons :    28
            Beta electrons :    28
          Charge           :     0
          Spin multiplicity:     1
          Use of symmetry is: off; symmetry adaption is: off
          Maximum number of iterations:  50
          AO basis - number of functions:   127
                     number of shells:    64
          Convergence on energy requested:  1.00D-06
          Convergence on density requested:  1.00D-05
          Convergence on gradient requested:  5.00D-04

              XC Information
              --------------
          PerdewBurkeErnzerhof Exchange Functional  1.000          
            Perdew 1991 LDA Correlation Functional  1.000 local    
           PerdewBurkeErnz. Correlation Functional  1.000 non-local

             Grid Information
             ----------------
          Grid used for XC integration:  xcoarse   
          Radial quadrature: Mura-Knowles        
          Angular quadrature: Lebedev. 
          Tag              B.-S. Rad. Rad. Pts. Rad. Cut. Ang. Pts.
          ---              ---------- --------- --------- ---------
          C                   0.70       21          12.0       194
          N                   0.65       21          11.0       194
          O                   0.60       21          12.0       194
          H                   0.35       21          13.0       194
          Grid pruning is: on 
          Number of quadrature shells:   378
          Spatial weights used:  Erf1

          Convergence Information
          -----------------------
          Convergence aids based upon iterative change in 
          total energy or number of iterations. 
          Levelshifting, if invoked, occurs when the 
          HOMO/LUMO gap drops below (HL_TOL):  1.00D-02
          DIIS, if invoked, will attempt to extrapolate 
          using up to (NFOCK): 10 stored Fock matrices.

                    Damping( 0%)  Levelshifting(0.5)       DIIS
                  --------------- ------------------- ---------------
          dE  on:    start            ASAP                start   
          dE off:    2 iters         50 iters            50 iters 


      Screening Tolerance Information
      -------------------------------
          Density screening/tol_rho:  1.00D-10
          AO Gaussian exp screening on grid/accAOfunc:  14
          CD Gaussian exp screening on grid/accCDfunc:  20
          XC Gaussian exp screening on grid/accXCfunc:  20
          Schwarz screening/accCoul:  1.00D-08

      Dispersion Parameters
      ---------------------

             DFT-D3 Model   
          s6 scale factor  :        1.000000000000
          s8 scale factor  :        0.722000000000
          sr6 scale factor :        1.217000000000
          sr8 scale factor :        1.000000000000
              vdW contrib  :       -0.007748676078


      Superposition of Atomic Density Guess
      -------------------------------------

 Sum of atomic energies:        -322.55145719

      Non-variational initial energy
      ------------------------------

 Total energy =    -327.208371
 1-e energy   =   -1057.325332
 2-e energy   =     416.205516
 HOMO         =      -0.311469
 LUMO         =       0.037287

   Time after variat. SCF:      0.3
   Time prior to 1st pass:      0.3
 Local filesystem for scratch_dir

 Integral file          = /data/EMPTY.aoints.0
 Record size in doubles =  65536        No. of integs per rec  =  43688
 Max. records in memory =      0        Max. records in file   =  13626
 No. of bits per label  =      8        No. of bits per value  =     64


 #quartets = 1.756D+06 #integrals = 2.451D+07 #direct =  0.0% #cached =100.0%


File balance: exchanges=     1  moved=    18  time=   0.0

 Local filesystem for scratch_dir

 Grid_pts file          = /data/EMPTY.gridpts.0
 Record size in doubles =  12289        No. of grid_pts per rec  =   3070
 Max. records in memory =     15        Max. recs in file   =     71242

 Grid integrated density:      55.994279592104
 Requested integration accuracy:   0.10E-03

           Memory utilization after 1st SCF pass: 
           Heap Space remaining (MW):       16.54            16543948
          Stack Space remaining (MW):       16.78            16776036

   convergence    iter        energy       DeltaE   RMS-Dens  Diis-err    time
 ---------------- ----- ----------------- --------- --------- ---------  ------
 d= 0,ls=0.0,diis     1   -326.3328387047 -6.40D+02  2.93D-02  1.43D+00     1.4
 d= 0,ls=0.0,diis     2   -325.3322297093  1.00D+00  2.55D-02  1.05D+01     1.7
 d= 0,ls=0.0,diis     3   -326.4551380456 -1.12D+00  4.51D-03  2.94D-01     1.9
 d= 0,ls=0.0,diis     4   -326.4690479204 -1.39D-02  2.05D-03  1.57D-01     2.2
 d= 0,ls=0.0,diis     5   -326.4857689871 -1.67D-02  5.46D-04  5.99D-03     2.5
  Resetting Diis
 d= 0,ls=0.0,diis     6   -326.4863179584 -5.49D-04  2.06D-04  7.39D-04     2.8
 d= 0,ls=0.0,diis     7   -326.4864062472 -8.83D-05  1.16D-04  3.44D-05     3.1
 d= 0,ls=0.0,diis     8   -326.4863910055  1.52D-05  8.20D-05  1.79D-04     3.4
 d= 0,ls=0.0,diis     9   -326.4864094893 -1.85D-05  2.18D-05  1.25D-05     3.6
 d= 0,ls=0.0,diis    10   -326.4864107022 -1.21D-06  5.03D-06  5.60D-07     3.9
 d= 0,ls=0.0,diis    11   -326.4864107721 -7.00D-08  7.07D-07  1.69D-08     4.2


         Total DFT energy =     -326.486410772142
      One electron energy =    -1063.794327229031
           Coulomb energy =      469.611046652361
    Exchange-Corr. energy =      -46.206826344071
 Nuclear repulsion energy =      313.911444824678

    Dispersion correction =       -0.007748676078

 Numeric. integr. density =       55.994542038386

     Total iterative time =      3.9s



                       DFT Final Molecular Orbital Analysis
                       ------------------------------------

 Vector    1  Occ=2.000000D+00  E=-1.874121D+01
              MO Center= -8.7D-01, -2.4D+00,  5.3D-01, r^2= 1.5D-02
   Bfn.  Coefficient  Atom+Function         Bfn.  Coefficient  Atom+Function  
  ----- ------------  ---------------      ----- ------------  ---------------
    91      0.985110   7 O  s                92     -0.051660   7 O  s         

 Vector    2  Occ=2.000000D+00  E=-1.403866D+01
              MO Center=  7.1D-01, -1.1D+00, -5.6D-01, r^2= 2.0D-02
   Bfn.  Coefficient  Atom+Function         Bfn.  Coefficient  Atom+Function  
  ----- ------------  ---------------      ----- ------------  ---------------
    61      0.985318   5 N  s                62     -0.056267   5 N  s         
    63      0.033465   5 N  s         

 Vector    3  Occ=2.000000D+00  E=-9.989159D+00
              MO Center=  2.7D-01, -2.2D+00,  1.3D-01, r^2= 2.8D-02
   Bfn.  Coefficient  Atom+Function         Bfn.  Coefficient  Atom+Function  
  ----- ------------  ---------------      ----- ------------  ---------------
    76      0.986599   6 C  s                77      0.055159   6 C  s         

 Vector    4  Occ=2.000000D+00  E=-9.940914D+00
              MO Center= -1.5D-01,  4.4D-02, -8.5D-01, r^2= 2.8D-02
   Bfn.  Coefficient  Atom+Function         Bfn.  Coefficient  Atom+Function  
  ----- ------------  ---------------      ----- ------------  ---------------
    46      0.986549   4 C  s                47      0.057237   4 C  s         
    48     -0.047771   4 C  s         

 Vector    5  Occ=2.000000D+00  E=-9.914981D+00
              MO Center= -1.8D-01,  1.1D+00,  2.8D-01, r^2= 2.8D-02
   Bfn.  Coefficient  Atom+Function         Bfn.  Coefficient  Atom+Function  
  ----- ------------  ---------------      ----- ------------  ---------------
    16      0.986626   2 C  s                18     -0.078135   2 C  s         
    17      0.058657   2 C  s         

 Vector    6  Occ=2.000000D+00  E=-9.899864D+00
              MO Center=  1.2D+00,  1.7D+00,  5.7D-01, r^2= 2.8D-02
   Bfn.  Coefficient  Atom+Function         Bfn.  Coefficient  Atom+Function  
  ----- ------------  ---------------      ----- ------------  ---------------
     1      0.986394   1 C  s                 2      0.057305   1 C  s         
     3     -0.049067   1 C  s         

 Vector    7  Occ=2.000000D+00  E=-9.897405D+00
              MO Center= -1.1D+00,  2.2D+00, -7.5D-02, r^2= 2.8D-02
   Bfn.  Coefficient  Atom+Function         Bfn.  Coefficient  Atom+Function  
  ----- ------------  ---------------      ----- ------------  ---------------
    31      0.986393   3 C  s                32      0.057312   3 C  s         
    33     -0.049208   3 C  s         

 Vector    8  Occ=2.000000D+00  E=-9.270513D-01
              MO Center= -3.3D-01, -2.1D+00,  2.6D-01, r^2= 9.5D-01
   Bfn.  Coefficient  Atom+Function         Bfn.  Coefficient  Atom+Function  
  ----- ------------  ---------------      ----- ------------  ---------------
    92      0.442689   7 O  s                77      0.309969   6 C  s         
    91      0.222133   7 O  s                93      0.190208   7 O  s         
    62      0.184610   5 N  s                76     -0.161137   6 C  s         
    79     -0.146471   6 C  px               94      0.146135   7 O  px        
    61      0.092585   5 N  s                78      0.060037   6 C  s         

 Vector    9  Occ=2.000000D+00  E=-8.371521D-01
              MO Center=  4.0D-01, -1.2D+00, -3.8D-01, r^2= 1.7D+00
   Bfn.  Coefficient  Atom+Function         Bfn.  Coefficient  Atom+Function  
  ----- ------------  ---------------      ----- ------------  ---------------
    62      0.440784   5 N  s                92     -0.242969   7 O  s         
    61      0.219397   5 N  s                47      0.188974   4 C  s         
    63      0.161730   5 N  s                79      0.137372   6 C  px        
   124      0.136181  17 H  s                91     -0.118972   7 O  s         
    80      0.104654   6 C  py               46     -0.101196   4 C  s         

 Vector   10  Occ=2.000000D+00  E=-7.263037D-01
              MO Center= -1.6D-02,  1.1D+00,  6.6D-02, r^2= 2.6D+00
   Bfn.  Coefficient  Atom+Function         Bfn.  Coefficient  Atom+Function  
  ----- ------------  ---------------      ----- ------------  ---------------
    17      0.325482   2 C  s                32      0.210327   3 C  s         
     2      0.205445   1 C  s                16     -0.171025   2 C  s         
    47      0.160669   4 C  s                62     -0.136877   5 N  s         
    31     -0.113343   3 C  s                 1     -0.111404   1 C  s         
    46     -0.085243   4 C  s               112      0.085546  11 H  s         

 Vector   11  Occ=2.000000D+00  E=-6.328024D-01
              MO Center=  2.6D-01,  8.8D-03, -3.5D-01, r^2= 3.7D+00
   Bfn.  Coefficient  Atom+Function         Bfn.  Coefficient  Atom+Function  
  ----- ------------  ---------------      ----- ------------  ---------------
    47      0.350954   4 C  s                 2     -0.199909   1 C  s         
    65     -0.196589   5 N  py               77     -0.172804   6 C  s         
    46     -0.171301   4 C  s                32     -0.137081   3 C  s         
   122      0.124602  16 H  s                79     -0.118200   6 C  px        
   120      0.118790  15 H  s                 1      0.101490   1 C  s         

 Vector   12  Occ=2.000000D+00  E=-6.165173D-01
              MO Center= -6.0D-03,  1.8D+00,  2.1D-01, r^2= 3.1D+00
   Bfn.  Coefficient  Atom+Function         Bfn.  Coefficient  Atom+Function  
  ----- ------------  ---------------      ----- ------------  ---------------
    32     -0.345648   3 C  s                 2      0.328951   1 C  s         
    31      0.173880   3 C  s                 1     -0.165509   1 C  s         
    19      0.141495   2 C  px              116     -0.131198  13 H  s         
   108      0.128101   9 H  s               114     -0.122567  12 H  s         
   118     -0.119404  14 H  s               106      0.118731   8 H  s         

 Vector   13  Occ=2.000000D+00  E=-5.412512D-01
              MO Center=  3.4D-01, -5.3D-01, -2.7D-01, r^2= 4.0D+00
   Bfn.  Coefficient  Atom+Function         Bfn.  Coefficient  Atom+Function  
  ----- ------------  ---------------      ----- ------------  ---------------
    77      0.242882   6 C  s               124     -0.229668  17 H  s         
    64      0.210799   5 N  px               65      0.188908   5 N  py        
    17      0.161690   2 C  s                66     -0.159898   5 N  pz        
    92     -0.148906   7 O  s                32     -0.144528   3 C  s         
    93     -0.131484   7 O  s                49     -0.124368   4 C  px        

 Vector   14  Occ=2.000000D+00  E=-5.078769D-01
              MO Center=  2.8D-01,  3.9D-01, -8.6D-02, r^2= 4.3D+00
   Bfn.  Coefficient  Atom+Function         Bfn.  Coefficient  Atom+Function  
  ----- ------------  ---------------      ----- ------------  ---------------
    17      0.281511   2 C  s                64     -0.277616   5 N  px        
   124      0.208504  17 H  s               112      0.151127  11 H  s         
     2     -0.147014   1 C  s                50      0.132798   4 C  py        
    16     -0.129306   2 C  s                67      0.123123   5 N  px        
    32     -0.121277   3 C  s                 4     -0.110255   1 C  px        

 Vector   15  Occ=2.000000D+00  E=-4.869005D-01
              MO Center=  2.6D-01, -9.3D-01, -2.4D-01, r^2= 4.1D+00
   Bfn.  Coefficient  Atom+Function         Bfn.  Coefficient  Atom+Function  
  ----- ------------  ---------------      ----- ------------  ---------------
   126     -0.228293  18 H  s                80      0.222234   6 C  py        
   122     -0.179313  16 H  s                64      0.166837   5 N  px        
    50     -0.155788   4 C  py               51      0.153490   4 C  pz        
    77     -0.153143   6 C  s                79     -0.153035   6 C  px        
    47     -0.144261   4 C  s                21      0.137560   2 C  pz        

 Vector   16  Occ=2.000000D+00  E=-4.181408D-01
              MO Center=  9.7D-02, -2.1D-01,  8.5D-02, r^2= 5.5D+00
   Bfn.  Coefficient  Atom+Function         Bfn.  Coefficient  Atom+Function  
  ----- ------------  ---------------      ----- ------------  ---------------
    80      0.242630   6 C  py               65      0.204833   5 N  py        
    21     -0.197525   2 C  pz               50      0.195296   4 C  py        
   126     -0.195312  18 H  s                 6     -0.154713   1 C  pz        
    36     -0.127520   3 C  pz               93      0.119463   7 O  s         
   112     -0.115895  11 H  s               118     -0.116077  14 H  s         

 Vector   17  Occ=2.000000D+00  E=-4.119720D-01
              MO Center= -4.8D-02,  2.2D-01, -2.4D-01, r^2= 4.0D+00
   Bfn.  Coefficient  Atom+Function         Bfn.  Coefficient  Atom+Function  
  ----- ------------  ---------------      ----- ------------  ---------------
    49      0.266521   4 C  px              120     -0.216256  15 H  s         
    65     -0.171168   5 N  py               19      0.161859   2 C  px        
     6     -0.147868   1 C  pz               51      0.143082   4 C  pz        
   110     -0.137411  10 H  s                64      0.132237   5 N  px        
   124     -0.125433  17 H  s                93     -0.116783   7 O  s         

 Vector   18  Occ=2.000000D+00  E=-4.045430D-01
              MO Center=  5.2D-02,  1.1D+00,  8.6D-02, r^2= 3.9D+00
   Bfn.  Coefficient  Atom+Function         Bfn.  Coefficient  Atom+Function  
  ----- ------------  ---------------      ----- ------------  ---------------
    20     -0.226073   2 C  py                4      0.224169   1 C  px        
    34     -0.217474   3 C  px              108      0.199596   9 H  s         
   116      0.186903  13 H  s                51      0.165884   4 C  pz        
     5     -0.137946   1 C  py               66     -0.122413   5 N  pz        
    23     -0.121488   2 C  py               36     -0.113999   3 C  pz        

 Vector   19  Occ=2.000000D+00  E=-3.590156D-01
              MO Center=  5.7D-01,  9.3D-01, -1.0D-01, r^2= 3.8D+00
   Bfn.  Coefficient  Atom+Function         Bfn.  Coefficient  Atom+Function  
  ----- ------------  ---------------      ----- ------------  ---------------
     5      0.287118   1 C  py              122     -0.219125  16 H  s         
   106      0.214347   8 H  s                51      0.194204   4 C  pz        
   108     -0.173863   9 H  s                19     -0.154459   2 C  px        
    65     -0.154722   5 N  py               35     -0.151476   3 C  py        
     6     -0.142629   1 C  pz               50     -0.138942   4 C  py        

 Vector   20  Occ=2.000000D+00  E=-3.537607D-01
              MO Center= -6.2D-01, -1.0D+00,  2.7D-01, r^2= 5.3D+00
   Bfn.  Coefficient  Atom+Function         Bfn.  Coefficient  Atom+Function  
  ----- ------------  ---------------      ----- ------------  ---------------
    94     -0.295987   7 O  px               79      0.287447   6 C  px        
    96      0.252800   7 O  pz               93      0.240175   7 O  s         
    35      0.178851   3 C  py               92      0.173700   7 O  s         
    97     -0.155446   7 O  px               99      0.139962   7 O  pz        
    66     -0.128375   5 N  pz              116     -0.128115  13 H  s         

 Vector   21  Occ=2.000000D+00  E=-3.474516D-01
              MO Center=  9.0D-03, -1.3D+00,  1.7D-01, r^2= 4.6D+00
   Bfn.  Coefficient  Atom+Function         Bfn.  Coefficient  Atom+Function  
  ----- ------------  ---------------      ----- ------------  ---------------
    81      0.272766   6 C  pz               94      0.262588   7 O  px        
    95      0.195667   7 O  py               80      0.181805   6 C  py        
    66     -0.176332   5 N  pz              110      0.156529  10 H  s         
     6      0.147559   1 C  pz               97      0.145184   7 O  px        
    96      0.135564   7 O  pz               84      0.129796   6 C  pz        

 Vector   22  Occ=2.000000D+00  E=-3.436692D-01
              MO Center= -3.1D-01,  1.7D+00, -9.9D-02, r^2= 4.5D+00
   Bfn.  Coefficient  Atom+Function         Bfn.  Coefficient  Atom+Function  
  ----- ------------  ---------------      ----- ------------  ---------------
    36      0.320870   3 C  pz              114     -0.267197  12 H  s         
     6     -0.220056   1 C  pz              118      0.186974  14 H  s         
   106      0.182315   8 H  s                39      0.152327   3 C  pz        
    34     -0.134667   3 C  px              110     -0.118964  10 H  s         
   122      0.116080  16 H  s                 9     -0.109792   1 C  pz        

 Vector   23  Occ=2.000000D+00  E=-3.328832D-01
              MO Center= -4.7D-01,  8.3D-01, -5.7D-02, r^2= 5.4D+00
   Bfn.  Coefficient  Atom+Function         Bfn.  Coefficient  Atom+Function  
  ----- ------------  ---------------      ----- ------------  ---------------
    49     -0.239122   4 C  px               35      0.232862   3 C  py        
   120      0.208137  15 H  s               118      0.204573  14 H  s         
   116     -0.186356  13 H  s               110     -0.162139  10 H  s         
    94      0.159303   7 O  px                6     -0.151353   1 C  pz        
   124      0.131355  17 H  s                64     -0.129161   5 N  px        

 Vector   24  Occ=2.000000D+00  E=-3.044553D-01
              MO Center= -2.3D-02,  5.4D-01,  2.4D-01, r^2= 5.1D+00
   Bfn.  Coefficient  Atom+Function         Bfn.  Coefficient  Atom+Function  
  ----- ------------  ---------------      ----- ------------  ---------------
    96      0.220433   7 O  pz               20      0.215772   2 C  py        
    50     -0.207483   4 C  py              110     -0.205399  10 H  s         
    51     -0.198483   4 C  pz                5     -0.178857   1 C  py        
    81      0.162546   6 C  pz              118     -0.157145  14 H  s         
    35     -0.155150   3 C  py               21      0.153846   2 C  pz        

 Vector   25  Occ=2.000000D+00  E=-2.970678D-01
              MO Center= -2.5D-02,  1.4D+00,  2.3D-01, r^2= 3.3D+00
   Bfn.  Coefficient  Atom+Function         Bfn.  Coefficient  Atom+Function  
  ----- ------------  ---------------      ----- ------------  ---------------
    34     -0.238398   3 C  px               21      0.225252   2 C  pz        
   108     -0.224695   9 H  s                19      0.208337   2 C  px        
     4     -0.202488   1 C  px              112      0.173314  11 H  s         
    36     -0.163469   3 C  pz                6     -0.155381   1 C  pz        
   116      0.156039  13 H  s                20     -0.141862   2 C  py        

 Vector   26  Occ=2.000000D+00  E=-2.910583D-01
              MO Center= -1.4D-01,  1.2D+00,  1.0D-01, r^2= 3.1D+00
   Bfn.  Coefficient  Atom+Function         Bfn.  Coefficient  Atom+Function  
  ----- ------------  ---------------      ----- ------------  ---------------
   112      0.277540  11 H  s                 4      0.267042   1 C  px        
    19     -0.257274   2 C  px               20     -0.183671   2 C  py        
   114      0.168613  12 H  s               116     -0.164146  13 H  s         
     7      0.150126   1 C  px              113      0.148241  11 H  s         
   120     -0.148217  15 H  s               106      0.144401   8 H  s         

 Vector   27  Occ=2.000000D+00  E=-2.174483D-01
              MO Center=  5.4D-02, -1.2D+00, -1.7D-01, r^2= 2.9D+00
   Bfn.  Coefficient  Atom+Function         Bfn.  Coefficient  Atom+Function  
  ----- ------------  ---------------      ----- ------------  ---------------
    66      0.391786   5 N  pz               96      0.345101   7 O  pz        
    69     -0.335832   5 N  pz               99      0.252700   7 O  pz        
    65      0.221893   5 N  py               68     -0.206919   5 N  py        
    20     -0.131136   2 C  py               21     -0.130194   2 C  pz        
    94      0.119992   7 O  px               18      0.117124   2 C  s         

 Vector   28  Occ=2.000000D+00  E=-2.025449D-01
              MO Center= -4.8D-01, -2.3D+00,  3.9D-01, r^2= 1.6D+00
   Bfn.  Coefficient  Atom+Function         Bfn.  Coefficient  Atom+Function  
  ----- ------------  ---------------      ----- ------------  ---------------
    95      0.538494   7 O  py               98      0.374939   7 O  py        
    63     -0.368038   5 N  s               126      0.219957  18 H  s         
   127      0.202790  18 H  s                94     -0.169310   7 O  px        
    96     -0.160024   7 O  pz               66      0.142733   5 N  pz        
    83      0.139936   6 C  py               69     -0.135847   5 N  pz        

 Vector   29  Occ=0.000000D+00  E=-7.927898D-03
              MO Center=  4.9D-02, -1.9D+00,  9.2D-02, r^2= 2.4D+00
   Bfn.  Coefficient  Atom+Function         Bfn.  Coefficient  Atom+Function  
  ----- ------------  ---------------      ----- ------------  ---------------
    18      0.591471   2 C  s                84      0.484419   6 C  pz        
    81      0.472920   6 C  pz               99     -0.359988   7 O  pz        
    96     -0.345894   7 O  pz               69     -0.269155   5 N  pz        
    83      0.264037   6 C  py               66      0.244695   5 N  pz        
    80      0.228927   6 C  py               54     -0.187693   4 C  pz        

 Vector   30  Occ=0.000000D+00  E= 1.875287D-02
              MO Center=  1.5D+00, -3.2D-01, -6.3D-01, r^2= 5.6D+00
   Bfn.  Coefficient  Atom+Function         Bfn.  Coefficient  Atom+Function  
  ----- ------------  ---------------      ----- ------------  ---------------
   125     -1.063713  17 H  s                 3      1.041986   1 C  s         
    48      0.660801   4 C  s                63      0.657337   5 N  s         
   123     -0.660166  16 H  s               109     -0.514033   9 H  s         
   107     -0.497685   8 H  s               127     -0.448751  18 H  s         
    33      0.434781   3 C  s                67      0.366064   5 N  px        

 Vector   31  Occ=0.000000D+00  E= 4.124765D-02
              MO Center= -3.4D-01,  1.2D+00,  8.6D-02, r^2= 8.7D+00
   Bfn.  Coefficient  Atom+Function         Bfn.  Coefficient  Atom+Function  
  ----- ------------  ---------------      ----- ------------  ---------------
    33      1.456698   3 C  s               119     -0.818422  14 H  s         
     3      0.697331   1 C  s               117     -0.692464  13 H  s         
   115     -0.635681  12 H  s               111     -0.620764  10 H  s         
    18      0.609740   2 C  s                48      0.598946   4 C  s         
   113     -0.598577  11 H  s               121     -0.594192  15 H  s         

 Vector   32  Occ=0.000000D+00  E= 6.605639D-02
              MO Center=  3.8D-01,  1.2D+00, -3.7D-01, r^2= 6.8D+00
   Bfn.  Coefficient  Atom+Function         Bfn.  Coefficient  Atom+Function  
  ----- ------------  ---------------      ----- ------------  ---------------
   123      1.182696  16 H  s                48     -0.877061   4 C  s         
   113     -0.829002  11 H  s               115      0.824851  12 H  s         
   109     -0.743495   9 H  s                 3      0.656396   1 C  s         
   111     -0.523289  10 H  s               107      0.488077   8 H  s         
    54      0.484504   4 C  pz                9      0.443395   1 C  pz        

 Vector   33  Occ=0.000000D+00  E= 8.193921D-02
              MO Center=  1.9D-01, -6.6D-01, -1.1D-01, r^2= 1.1D+01
   Bfn.  Coefficient  Atom+Function         Bfn.  Coefficient  Atom+Function  
  ----- ------------  ---------------      ----- ------------  ---------------
   127      1.430360  18 H  s                78     -1.276636   6 C  s         
    33     -1.162807   3 C  s               121     -0.860230  15 H  s         
   119      0.846035  14 H  s                48      0.765647   4 C  s         
    63      0.690272   5 N  s               115      0.645152  12 H  s         
    52     -0.520745   4 C  px               82     -0.432553   6 C  px        

 Vector   34  Occ=0.000000D+00  E= 8.406106D-02
              MO Center=  9.5D-02,  1.2D+00, -3.9D-02, r^2= 9.1D+00
   Bfn.  Coefficient  Atom+Function         Bfn.  Coefficient  Atom+Function  
  ----- ------------  ---------------      ----- ------------  ---------------
     3      2.073575   1 C  s               107     -1.217280   8 H  s         
    48     -1.084711   4 C  s               117      0.975340  13 H  s         
   111     -0.921014  10 H  s               121      0.796682  15 H  s         
    33     -0.722782   3 C  s               127      0.526308  18 H  s         
   109     -0.484192   9 H  s                37      0.394862   3 C  px        

 Vector   35  Occ=0.000000D+00  E= 9.651542D-02
              MO Center=  4.2D-01,  1.6D+00,  2.7D-01, r^2= 7.1D+00
   Bfn.  Coefficient  Atom+Function         Bfn.  Coefficient  Atom+Function  
  ----- ------------  ---------------      ----- ------------  ---------------
   109      1.234573   9 H  s                 3     -0.900277   1 C  s         
   111     -0.900677  10 H  s               117      0.847746  13 H  s         
    33     -0.749379   3 C  s                48      0.698115   4 C  s         
   119     -0.689937  14 H  s                 8      0.665718   1 C  py        
   107      0.624786   8 H  s               123     -0.590566  16 H  s         

 Vector   36  Occ=0.000000D+00  E= 1.081410D-01
              MO Center=  3.6D-01,  7.0D-02, -1.2D-01, r^2= 1.2D+01
   Bfn.  Coefficient  Atom+Function         Bfn.  Coefficient  Atom+Function  
  ----- ------------  ---------------      ----- ------------  ---------------
    33      1.848928   3 C  s               127      1.252805  18 H  s         
    48     -1.157643   4 C  s                 3     -1.004255   1 C  s         
   119     -0.881813  14 H  s               107      0.872538   8 H  s         
    63      0.837744   5 N  s               115     -0.751078  12 H  s         
    78     -0.737334   6 C  s               121      0.687341  15 H  s         

 Vector   37  Occ=0.000000D+00  E= 1.131760D-01
              MO Center= -2.4D-01,  5.9D-01,  3.8D-01, r^2= 7.2D+00
   Bfn.  Coefficient  Atom+Function         Bfn.  Coefficient  Atom+Function  
  ----- ------------  ---------------      ----- ------------  ---------------
    18      1.910278   2 C  s               113     -1.489382  11 H  s         
     3     -1.017188   1 C  s               123     -0.894691  16 H  s         
    33     -0.883859   3 C  s               111      0.831008  10 H  s         
   117      0.737892  13 H  s               121      0.733467  15 H  s         
    24      0.671815   2 C  pz               78     -0.621644   6 C  s         

 Vector   38  Occ=0.000000D+00  E= 1.289038D-01
              MO Center=  4.9D-01,  9.6D-01,  5.1D-02, r^2= 7.0D+00
   Bfn.  Coefficient  Atom+Function         Bfn.  Coefficient  Atom+Function  
  ----- ------------  ---------------      ----- ------------  ---------------
    18      1.934860   2 C  s                48     -1.713246   4 C  s         
   109      1.346853   9 H  s               113     -1.114375  11 H  s         
   123      1.062554  16 H  s                 3     -0.840880   1 C  s         
     8      0.734484   1 C  py              115     -0.704272  12 H  s         
    63      0.676667   5 N  s                23     -0.660654   2 C  py        

 Vector   39  Occ=0.000000D+00  E= 1.358571D-01
              MO Center=  4.6D-02,  2.1D+00, -1.6D-01, r^2= 7.0D+00
   Bfn.  Coefficient  Atom+Function         Bfn.  Coefficient  Atom+Function  
  ----- ------------  ---------------      ----- ------------  ---------------
   115      1.416000  12 H  s               107     -1.129478   8 H  s         
   119     -0.953186  14 H  s                39      0.854645   3 C  pz        
   111      0.818483  10 H  s                 9     -0.743282   1 C  pz        
   117     -0.713000  13 H  s               109      0.678986   9 H  s         
    37     -0.530387   3 C  px               48     -0.417302   4 C  s         

 Vector   40  Occ=0.000000D+00  E= 1.474889D-01
              MO Center= -8.1D-01,  9.4D-01, -2.3D-01, r^2= 7.5D+00
   Bfn.  Coefficient  Atom+Function         Bfn.  Coefficient  Atom+Function  
  ----- ------------  ---------------      ----- ------------  ---------------
   121     -1.368526  15 H  s               117      1.277040  13 H  s         
    48      1.033177   4 C  s               111      0.943427  10 H  s         
   119     -0.719304  14 H  s               123      0.707105  16 H  s         
    18     -0.634307   2 C  s                37      0.620155   3 C  px        
    78     -0.567585   6 C  s                53     -0.528215   4 C  py        

 Vector   41  Occ=0.000000D+00  E= 1.805204D-01
              MO Center= -8.0D-02,  8.1D-01, -8.6D-02, r^2= 5.6D+00
   Bfn.  Coefficient  Atom+Function         Bfn.  Coefficient  Atom+Function  
  ----- ------------  ---------------      ----- ------------  ---------------
    23      1.542542   2 C  py               53      0.927758   4 C  py        
    18      0.882338   2 C  s                38      0.876336   3 C  py        
    63      0.862853   5 N  s                 3     -0.799261   1 C  s         
    33     -0.795077   3 C  s                37     -0.783994   3 C  px        
   111      0.724210  10 H  s                54      0.673717   4 C  pz        

 Vector   42  Occ=0.000000D+00  E= 1.825243D-01
              MO Center=  2.0D-01,  1.4D+00,  4.0D-02, r^2= 4.8D+00
   Bfn.  Coefficient  Atom+Function         Bfn.  Coefficient  Atom+Function  
  ----- ------------  ---------------      ----- ------------  ---------------
    18      4.383332   2 C  s                 3     -2.128203   1 C  s         
    33     -1.914628   3 C  s                 7      1.514274   1 C  px        
    53     -1.129774   4 C  py               48     -1.112716   4 C  s         
    22      1.046398   2 C  px               23      0.999503   2 C  py        
    24     -0.976854   2 C  pz               37     -0.943645   3 C  px        

 Vector   43  Occ=0.000000D+00  E= 1.992431D-01
              MO Center=  2.2D-02,  5.1D-01, -2.1D-01, r^2= 5.6D+00
   Bfn.  Coefficient  Atom+Function         Bfn.  Coefficient  Atom+Function  
  ----- ------------  ---------------      ----- ------------  ---------------
    22      1.620480   2 C  px               48     -1.374877   4 C  s         
    33      1.332861   3 C  s                23     -1.199556   2 C  py        
    52     -1.056351   4 C  px               78      0.994775   6 C  s         
    54     -0.984665   4 C  pz                3     -0.832708   1 C  s         
    63      0.808956   5 N  s                 7      0.740709   1 C  px        

 Vector   44  Occ=0.000000D+00  E= 2.074391D-01
              MO Center= -2.0D-01,  4.8D-01, -1.0D-01, r^2= 6.0D+00
   Bfn.  Coefficient  Atom+Function         Bfn.  Coefficient  Atom+Function  
  ----- ------------  ---------------      ----- ------------  ---------------
    18      1.998906   2 C  s                48     -1.444015   4 C  s         
    24     -1.328744   2 C  pz               22     -1.279253   2 C  px        
    33     -1.170777   3 C  s                54     -1.149865   4 C  pz        
    38      1.045685   3 C  py               78      1.035226   6 C  s         
    93     -0.894559   7 O  s                53     -0.814555   4 C  py        

 Vector   45  Occ=0.000000D+00  E= 2.388799D-01
              MO Center= -8.5D-02, -1.1D+00,  1.2D-01, r^2= 5.8D+00
   Bfn.  Coefficient  Atom+Function         Bfn.  Coefficient  Atom+Function  
  ----- ------------  ---------------      ----- ------------  ---------------
    48      2.096464   4 C  s                93     -1.521463   7 O  s         
    82     -1.371862   6 C  px               78      1.343255   6 C  s         
    24      0.901668   2 C  pz               18     -0.867497   2 C  s         
    54      0.782952   4 C  pz               67      0.551380   5 N  px        
    63     -0.508709   5 N  s               121     -0.493004  15 H  s         

 Vector   46  Occ=0.000000D+00  E= 2.932081D-01
              MO Center=  4.6D-01, -1.6D+00, -7.8D-02, r^2= 4.1D+00
   Bfn.  Coefficient  Atom+Function         Bfn.  Coefficient  Atom+Function  
  ----- ------------  ---------------      ----- ------------  ---------------
    78      2.213215   6 C  s                83      1.787462   6 C  py        
    63     -1.552327   5 N  s                68      1.249356   5 N  py        
    84     -1.144074   6 C  pz               82      0.857607   6 C  px        
    48     -0.728792   4 C  s                69     -0.728258   5 N  pz        
    18      0.663145   2 C  s                52     -0.572540   4 C  px        

 Vector   47  Occ=0.000000D+00  E= 3.581824D-01
              MO Center=  4.6D-01,  1.7D-01, -1.9D-01, r^2= 5.3D+00
   Bfn.  Coefficient  Atom+Function         Bfn.  Coefficient  Atom+Function  
  ----- ------------  ---------------      ----- ------------  ---------------
    48      1.760970   4 C  s                18     -1.382637   2 C  s         
    78     -0.872068   6 C  s                 3      0.658001   1 C  s         
   121     -0.657434  15 H  s                77      0.608221   6 C  s         
    23      0.465287   2 C  py               47     -0.448509   4 C  s         
    54      0.443310   4 C  pz              111     -0.434430  10 H  s         

 Vector   48  Occ=0.000000D+00  E= 3.685756D-01
              MO Center=  1.2D-01,  1.6D+00,  2.8D-01, r^2= 5.0D+00
   Bfn.  Coefficient  Atom+Function         Bfn.  Coefficient  Atom+Function  
  ----- ------------  ---------------      ----- ------------  ---------------
    33      1.171174   3 C  s                18     -0.930135   2 C  s         
     3      0.913380   1 C  s                37      0.701200   3 C  px        
    23     -0.636426   2 C  py              108      0.525059   9 H  s         
     8      0.489186   1 C  py              116      0.489145  13 H  s         
   117     -0.451070  13 H  s               106     -0.414373   8 H  s         

 Vector   49  Occ=0.000000D+00  E= 3.964886D-01
              MO Center=  1.1D-01,  1.2D+00,  2.0D-01, r^2= 5.2D+00
   Bfn.  Coefficient  Atom+Function         Bfn.  Coefficient  Atom+Function  
  ----- ------------  ---------------      ----- ------------  ---------------
     3      1.193425   1 C  s                 7     -0.731866   1 C  px        
    63      0.554033   5 N  s                 2     -0.518472   1 C  s         
    39     -0.494103   3 C  pz              114     -0.460756  12 H  s         
    18     -0.455284   2 C  s                 8     -0.441502   1 C  py        
    38      0.416129   3 C  py                4      0.394220   1 C  px        

 Vector   50  Occ=0.000000D+00  E= 4.079918D-01
              MO Center= -7.8D-02,  3.6D-01, -1.6D-01, r^2= 5.6D+00
   Bfn.  Coefficient  Atom+Function         Bfn.  Coefficient  Atom+Function  
  ----- ------------  ---------------      ----- ------------  ---------------
    48      1.131781   4 C  s                54      0.912987   4 C  pz        
    53      0.702840   4 C  py               83      0.504624   6 C  py        
    18     -0.473237   2 C  s                63     -0.466676   5 N  s         
   123     -0.371960  16 H  s               122      0.362321  16 H  s         
    39     -0.358211   3 C  pz               47     -0.344772   4 C  s         

 Vector   51  Occ=0.000000D+00  E= 4.195431D-01
              MO Center=  3.7D-01, -5.6D-01, -2.8D-01, r^2= 5.6D+00
   Bfn.  Coefficient  Atom+Function         Bfn.  Coefficient  Atom+Function  
  ----- ------------  ---------------      ----- ------------  ---------------
    78      1.584872   6 C  s                18      0.874440   2 C  s         
    77     -0.846278   6 C  s                63     -0.812183   5 N  s         
    84     -0.537241   6 C  pz              124     -0.483025  17 H  s         
   127     -0.424567  18 H  s                81      0.372750   6 C  pz        
    39      0.362780   3 C  pz                7      0.345529   1 C  px        

 Vector   52  Occ=0.000000D+00  E= 4.371209D-01
              MO Center= -1.3D-01, -3.3D-01, -2.8D-01, r^2= 6.6D+00
   Bfn.  Coefficient  Atom+Function         Bfn.  Coefficient  Atom+Function  
  ----- ------------  ---------------      ----- ------------  ---------------
     3      0.583717   1 C  s                78     -0.575853   6 C  s         
    33     -0.547693   3 C  s                83      0.521785   6 C  py        
    38      0.508413   3 C  py              126      0.490615  18 H  s         
    93      0.454535   7 O  s                53     -0.450524   4 C  py        
   118     -0.448817  14 H  s                50      0.446464   4 C  py        

 Vector   53  Occ=0.000000D+00  E= 4.665634D-01
              MO Center=  2.2D-01, -1.1D+00,  1.2D-01, r^2= 6.0D+00
   Bfn.  Coefficient  Atom+Function         Bfn.  Coefficient  Atom+Function  
  ----- ------------  ---------------      ----- ------------  ---------------
    48      1.922537   4 C  s                33     -1.139333   3 C  s         
    84     -1.006680   6 C  pz               23      0.858788   2 C  py        
    63     -0.736197   5 N  s                81      0.615455   6 C  pz        
    54      0.571027   4 C  pz               47     -0.450081   4 C  s         
    39     -0.419471   3 C  pz              123     -0.408337  16 H  s         

 Vector   54  Occ=0.000000D+00  E= 5.211014D-01
              MO Center=  1.9D-02,  3.8D-01, -2.7D-02, r^2= 7.1D+00
   Bfn.  Coefficient  Atom+Function         Bfn.  Coefficient  Atom+Function  
  ----- ------------  ---------------      ----- ------------  ---------------
    48      2.479175   4 C  s                18     -1.885617   2 C  s         
    38     -1.015968   3 C  py               33      0.882830   3 C  s         
    63     -0.866986   5 N  s                23      0.858746   2 C  py        
    78      0.861047   6 C  s                24      0.707520   2 C  pz        
     8     -0.543638   1 C  py               32     -0.545739   3 C  s         

 Vector   55  Occ=0.000000D+00  E= 5.411442D-01
              MO Center=  4.4D-02,  6.8D-01, -4.6D-01, r^2= 6.0D+00
   Bfn.  Coefficient  Atom+Function         Bfn.  Coefficient  Atom+Function  
  ----- ------------  ---------------      ----- ------------  ---------------
    48      3.965105   4 C  s                18     -2.962342   2 C  s         
    33      2.143399   3 C  s                 3      1.796039   1 C  s         
    24      1.678770   2 C  pz               39     -1.038917   3 C  pz        
   123     -0.926687  16 H  s                37      0.703163   3 C  px        
     9     -0.693139   1 C  pz              107     -0.637537   8 H  s         

 Vector   56  Occ=0.000000D+00  E= 5.500705D-01
              MO Center=  2.0D-01,  4.9D-01, -1.2D-02, r^2= 4.9D+00
   Bfn.  Coefficient  Atom+Function         Bfn.  Coefficient  Atom+Function  
  ----- ------------  ---------------      ----- ------------  ---------------
    18      4.617790   2 C  s                 3     -2.574728   1 C  s         
    48     -1.371693   4 C  s                54     -1.270242   4 C  pz        
    22      1.131222   2 C  px                7      0.983965   1 C  px        
    17     -0.957679   2 C  s               113     -0.752094  11 H  s         
    37     -0.572064   3 C  px               53     -0.564862   4 C  py        

 Vector   57  Occ=0.000000D+00  E= 5.598256D-01
              MO Center= -2.2D-02,  9.7D-01, -9.1D-02, r^2= 5.9D+00
   Bfn.  Coefficient  Atom+Function         Bfn.  Coefficient  Atom+Function  
  ----- ------------  ---------------      ----- ------------  ---------------
    18      3.114183   2 C  s                33     -2.180532   3 C  s         
     3     -1.785592   1 C  s                53     -1.401428   4 C  py        
    63     -1.386416   5 N  s                 9      1.094981   1 C  pz        
    24     -1.037974   2 C  pz               23      1.002150   2 C  py        
    52      0.722113   4 C  px               17     -0.622693   2 C  s         

 Vector   58  Occ=0.000000D+00  E= 5.866837D-01
              MO Center=  3.9D-01, -2.1D+00,  1.6D-01, r^2= 4.9D+00
   Bfn.  Coefficient  Atom+Function         Bfn.  Coefficient  Atom+Function  
  ----- ------------  ---------------      ----- ------------  ---------------
    78      1.835263   6 C  s               127     -1.725609  18 H  s         
    48     -1.371093   4 C  s                77     -1.069775   6 C  s         
    83     -1.066362   6 C  py              123      0.692169  16 H  s         
    80      0.641844   6 C  py               63      0.610259   5 N  s         
    18     -0.558525   2 C  s               126      0.521531  18 H  s         

 Vector   59  Occ=0.000000D+00  E= 5.951240D-01
              MO Center= -2.3D-01,  1.3D+00,  2.2D-01, r^2= 5.4D+00
   Bfn.  Coefficient  Atom+Function         Bfn.  Coefficient  Atom+Function  
  ----- ------------  ---------------      ----- ------------  ---------------
    33      2.704670   3 C  s                 3      1.836785   1 C  s         
    23     -1.506494   2 C  py               24     -1.271214   2 C  pz        
   119     -1.097432  14 H  s                39      0.940363   3 C  pz        
   121     -0.894514  15 H  s                48     -0.884820   4 C  s         
    32     -0.804032   3 C  s                 2     -0.743375   1 C  s         

 Vector   60  Occ=0.000000D+00  E= 6.059184D-01
              MO Center= -3.9D-01,  5.9D-01, -2.5D-01, r^2= 4.6D+00
   Bfn.  Coefficient  Atom+Function         Bfn.  Coefficient  Atom+Function  
  ----- ------------  ---------------      ----- ------------  ---------------
    48      3.589470   4 C  s                 3     -2.184187   1 C  s         
    23      1.259382   2 C  py              121     -1.255818  15 H  s         
    22      1.176953   2 C  px               24      1.002975   2 C  pz        
    47     -0.978960   4 C  s                33      0.711102   3 C  s         
    63     -0.644715   5 N  s               120      0.631632  15 H  s         

 Vector   61  Occ=0.000000D+00  E= 6.169517D-01
              MO Center= -2.2D-02,  8.8D-01,  6.1D-02, r^2= 7.1D+00
   Bfn.  Coefficient  Atom+Function         Bfn.  Coefficient  Atom+Function  
  ----- ------------  ---------------      ----- ------------  ---------------
    33      1.337980   3 C  s                 3      1.151671   1 C  s         
   111     -0.935989  10 H  s                18      0.826327   2 C  s         
   117     -0.809618  13 H  s                32     -0.731681   3 C  s         
   121      0.644299  15 H  s                38      0.552512   3 C  py        
     9      0.543287   1 C  pz              108     -0.530655   9 H  s         

 Vector   62  Occ=0.000000D+00  E= 6.276248D-01
              MO Center=  2.8D-01, -4.7D-01,  2.6D-01, r^2= 6.3D+00
   Bfn.  Coefficient  Atom+Function         Bfn.  Coefficient  Atom+Function  
  ----- ------------  ---------------      ----- ------------  ---------------
    18      1.554955   2 C  s                33     -1.290991   3 C  s         
    48      1.193780   4 C  s                23      0.949692   2 C  py        
   127      0.903703  18 H  s                37     -0.826111   3 C  px        
    82     -0.776574   6 C  px               79      0.701734   6 C  px        
    63     -0.697085   5 N  s               108      0.608771   9 H  s         

 Vector   63  Occ=0.000000D+00  E= 6.326685D-01
              MO Center=  3.4D-01,  5.9D-02,  2.6D-01, r^2= 6.8D+00
   Bfn.  Coefficient  Atom+Function         Bfn.  Coefficient  Atom+Function  
  ----- ------------  ---------------      ----- ------------  ---------------
     3      2.658615   1 C  s                22     -1.642747   2 C  px        
    33     -1.303317   3 C  s                78      1.285900   6 C  s         
    82      1.168406   6 C  px               18      1.124097   2 C  s         
   127     -1.089666  18 H  s                38      1.005317   3 C  py        
    23      0.829816   2 C  py              109     -0.815185   9 H  s         

 Vector   64  Occ=0.000000D+00  E= 6.453225D-01
              MO Center= -4.8D-01,  1.0D+00, -5.0D-01, r^2= 5.6D+00
   Bfn.  Coefficient  Atom+Function         Bfn.  Coefficient  Atom+Function  
  ----- ------------  ---------------      ----- ------------  ---------------
    33      1.741983   3 C  s               123      1.429153  16 H  s         
   117     -1.384591  13 H  s                18     -1.279636   2 C  s         
     3      1.265519   1 C  s                54      1.143180   4 C  pz        
   107     -0.860760   8 H  s                52     -0.824742   4 C  px        
    37     -0.751938   3 C  px               23      0.573955   2 C  py        

 Vector   65  Occ=0.000000D+00  E= 6.543871D-01
              MO Center=  1.3D-01,  1.3D+00,  2.7D-01, r^2= 5.2D+00
   Bfn.  Coefficient  Atom+Function         Bfn.  Coefficient  Atom+Function  
  ----- ------------  ---------------      ----- ------------  ---------------
    18      2.751711   2 C  s                48     -2.183623   4 C  s         
    33     -1.422574   3 C  s               113     -1.303785  11 H  s         
   107     -0.903383   8 H  s               123      0.856819  16 H  s         
   119      0.749808  14 H  s                23     -0.670084   2 C  py        
    63      0.670161   5 N  s                17     -0.657460   2 C  s         

 Vector   66  Occ=0.000000D+00  E= 6.546706D-01
              MO Center=  1.5D-01,  1.3D+00, -1.1D-01, r^2= 5.4D+00
   Bfn.  Coefficient  Atom+Function         Bfn.  Coefficient  Atom+Function  
  ----- ------------  ---------------      ----- ------------  ---------------
    33      1.815426   3 C  s                48     -1.333950   4 C  s         
   115     -1.241639  12 H  s               109     -1.115352   9 H  s         
    22      1.032317   2 C  px              121      0.837832  15 H  s         
     9      0.732171   1 C  pz                7      0.715821   1 C  px        
    54      0.706227   4 C  pz              123      0.663699  16 H  s         

 Vector   67  Occ=0.000000D+00  E= 6.588785D-01
              MO Center=  1.1D-01,  2.0D+00,  4.3D-02, r^2= 5.8D+00
   Bfn.  Coefficient  Atom+Function         Bfn.  Coefficient  Atom+Function  
  ----- ------------  ---------------      ----- ------------  ---------------
     3      2.975122   1 C  s                33     -2.674276   3 C  s         
   115      1.496080  12 H  s               111     -1.105095  10 H  s         
     7      0.987321   1 C  px              107     -0.990074   8 H  s         
   109     -0.960167   9 H  s                32      0.944633   3 C  s         
     2     -0.925032   1 C  s                18     -0.790461   2 C  s         

 Vector   68  Occ=0.000000D+00  E= 6.778629D-01
              MO Center=  5.8D-01,  8.7D-01,  3.0D-01, r^2= 5.8D+00
   Bfn.  Coefficient  Atom+Function         Bfn.  Coefficient  Atom+Function  
  ----- ------------  ---------------      ----- ------------  ---------------
    24      1.211779   2 C  pz              111     -1.192773  10 H  s         
   113     -0.990480  11 H  s                 8      0.936681   1 C  py        
    38     -0.863991   3 C  py              119      0.866273  14 H  s         
   125      0.806276  17 H  s                 9      0.702057   1 C  pz        
    33     -0.681720   3 C  s                22      0.662767   2 C  px        

 Vector   69  Occ=0.000000D+00  E= 6.845398D-01
              MO Center= -2.2D-01,  1.5D+00,  2.2D-01, r^2= 4.8D+00
   Bfn.  Coefficient  Atom+Function         Bfn.  Coefficient  Atom+Function  
  ----- ------------  ---------------      ----- ------------  ---------------
    18      2.132778   2 C  s               113     -1.090535  11 H  s         
    63      1.054745   5 N  s               109     -0.823011   9 H  s         
   115      0.755543  12 H  s               117     -0.751468  13 H  s         
    39      0.739328   3 C  pz               48     -0.737090   4 C  s         
     8     -0.715849   1 C  py              119     -0.710963  14 H  s         

 Vector   70  Occ=0.000000D+00  E= 6.968268D-01
              MO Center= -1.2D-01,  1.4D+00,  1.7D-01, r^2= 5.8D+00
   Bfn.  Coefficient  Atom+Function         Bfn.  Coefficient  Atom+Function  
  ----- ------------  ---------------      ----- ------------  ---------------
     3      1.316769   1 C  s               119      1.203168  14 H  s         
    33     -1.132310   3 C  s                 8     -1.083140   1 C  py        
    22     -1.074514   2 C  px               24     -1.039637   2 C  pz        
   109     -0.968395   9 H  s               107      0.936801   8 H  s         
     9      0.873995   1 C  pz               39     -0.759687   3 C  pz        

 Vector   71  Occ=0.000000D+00  E= 6.997066D-01
              MO Center=  2.3D-01,  1.2D+00,  7.6D-02, r^2= 5.6D+00
   Bfn.  Coefficient  Atom+Function         Bfn.  Coefficient  Atom+Function  
  ----- ------------  ---------------      ----- ------------  ---------------
    48      1.631338   4 C  s                22     -0.907142   2 C  px        
   111     -0.888716  10 H  s               109      0.806334   9 H  s         
     3      0.736023   1 C  s               117      0.619142  13 H  s         
   121     -0.615861  15 H  s               115     -0.605190  12 H  s         
   125     -0.583232  17 H  s                 7     -0.572520   1 C  px        

 Vector   72  Occ=0.000000D+00  E= 7.167256D-01
              MO Center= -2.4D-02,  9.4D-01, -2.6D-01, r^2= 5.5D+00
   Bfn.  Coefficient  Atom+Function         Bfn.  Coefficient  Atom+Function  
  ----- ------------  ---------------      ----- ------------  ---------------
    18      2.158724   2 C  s                48     -1.358897   4 C  s         
    24     -1.316829   2 C  pz               37     -0.944794   3 C  px        
   121      0.929057  15 H  s                52      0.828502   4 C  px        
   117     -0.817906  13 H  s                22      0.785163   2 C  px        
     8      0.730587   1 C  py               17     -0.599171   2 C  s         

 Vector   73  Occ=0.000000D+00  E= 7.503515D-01
              MO Center=  2.6D-01,  4.0D-01, -5.3D-01, r^2= 5.9D+00
   Bfn.  Coefficient  Atom+Function         Bfn.  Coefficient  Atom+Function  
  ----- ------------  ---------------      ----- ------------  ---------------
    18      2.268885   2 C  s                33     -1.615100   3 C  s         
    52     -1.466137   4 C  px               38      1.215770   3 C  py        
     8     -1.139730   1 C  py              117      1.014347  13 H  s         
   121     -1.015671  15 H  s               125      0.922979  17 H  s         
     7      0.846543   1 C  px              109     -0.833197   9 H  s         

 Vector   74  Occ=0.000000D+00  E= 8.277860D-01
              MO Center= -1.2D-02, -1.0D+00, -5.8D-03, r^2= 5.2D+00
   Bfn.  Coefficient  Atom+Function         Bfn.  Coefficient  Atom+Function  
  ----- ------------  ---------------      ----- ------------  ---------------
    18      2.705734   2 C  s                78     -2.513544   6 C  s         
    83     -2.260788   6 C  py               63      2.144529   5 N  s         
[...]
    63      0.447731   5 N  s                71     -0.420328   5 N  dxy       

 Vector  108  Occ=0.000000D+00  E= 2.338467D+00
              MO Center=  4.3D-02,  6.2D-01,  6.3D-02, r^2= 3.0D+00
   Bfn.  Coefficient  Atom+Function         Bfn.  Coefficient  Atom+Function  
  ----- ------------  ---------------      ----- ------------  ---------------
    18      2.098229   2 C  s                48     -1.513090   4 C  s         
    29      0.998169   2 C  dyz              27      0.918437   2 C  dxz       
    33     -0.795333   3 C  s                59     -0.638749   4 C  dyz       
    24     -0.601204   2 C  pz               63      0.573987   5 N  s         
    54     -0.524235   4 C  pz               41      0.502801   3 C  dxy       

 Vector  109  Occ=0.000000D+00  E= 2.395059D+00
              MO Center=  9.5D-02,  1.9D-01, -9.2D-02, r^2= 3.7D+00
   Bfn.  Coefficient  Atom+Function         Bfn.  Coefficient  Atom+Function  
  ----- ------------  ---------------      ----- ------------  ---------------
    23      0.724185   2 C  py               33     -0.538653   3 C  s         
    28      0.453725   2 C  dyy              72     -0.444295   5 N  dxz       
    11      0.434506   1 C  dxy              60     -0.421472   4 C  dzz       
    71     -0.415437   5 N  dxy              10     -0.384075   1 C  dxx       
    52     -0.384493   4 C  px               30     -0.364230   2 C  dzz       

 Vector  110  Occ=0.000000D+00  E= 2.433416D+00
              MO Center= -8.0D-02,  1.3D-01, -7.9D-02, r^2= 4.0D+00
   Bfn.  Coefficient  Atom+Function         Bfn.  Coefficient  Atom+Function  
  ----- ------------  ---------------      ----- ------------  ---------------
    41      0.824404   3 C  dxy              48      0.744878   4 C  s         
    26     -0.733949   2 C  dxy              63     -0.657454   5 N  s         
    27      0.601475   2 C  dxz              33     -0.581078   3 C  s         
    75      0.501014   5 N  dzz              22     -0.460069   2 C  px        
    73     -0.434759   5 N  dyy              23      0.423423   2 C  py        

 Vector  111  Occ=0.000000D+00  E= 2.520161D+00
              MO Center=  2.0D-01, -5.5D-01, -9.2D-02, r^2= 3.5D+00
   Bfn.  Coefficient  Atom+Function         Bfn.  Coefficient  Atom+Function  
  ----- ------------  ---------------      ----- ------------  ---------------
    63      1.891115   5 N  s                48     -1.331624   4 C  s         
    78     -0.661455   6 C  s                74     -0.654384   5 N  dyz       
     3      0.619704   1 C  s                72     -0.551094   5 N  dxz       
    11      0.513572   1 C  dxy              24     -0.508223   2 C  pz        
    25     -0.478438   2 C  dxx              70      0.480104   5 N  dxx       

 Vector  112  Occ=0.000000D+00  E= 2.586586D+00
              MO Center=  1.8D-02,  1.8D-01,  1.5D-01, r^2= 3.8D+00
   Bfn.  Coefficient  Atom+Function         Bfn.  Coefficient  Atom+Function  
  ----- ------------  ---------------      ----- ------------  ---------------
     3      1.229877   1 C  s                48     -1.206580   4 C  s         
    22     -0.894184   2 C  px               26     -0.816103   2 C  dxy       
    59     -0.816440   4 C  dyz              54     -0.729216   4 C  pz        
     7     -0.670468   1 C  px               11      0.659114   1 C  dxy       
    25     -0.643832   2 C  dxx              23     -0.640573   2 C  py        

 Vector  113  Occ=0.000000D+00  E= 2.618280D+00
              MO Center= -5.2D-01, -1.1D+00,  3.2D-01, r^2= 3.8D+00
   Bfn.  Coefficient  Atom+Function         Bfn.  Coefficient  Atom+Function  
  ----- ------------  ---------------      ----- ------------  ---------------
   104     -0.926662   7 O  dyz              33      0.863731   3 C  s         
    26      0.765820   2 C  dxy              22      0.606968   2 C  px        
    41     -0.574089   3 C  dxy               3     -0.503273   1 C  s         
    23     -0.496143   2 C  py               29      0.487854   2 C  dyz       
   101     -0.415900   7 O  dxy             103     -0.412845   7 O  dyy       

 Vector  114  Occ=0.000000D+00  E= 2.644933D+00
              MO Center= -3.5D-01, -1.7D+00,  2.3D-01, r^2= 2.4D+00
   Bfn.  Coefficient  Atom+Function         Bfn.  Coefficient  Atom+Function  
  ----- ------------  ---------------      ----- ------------  ---------------
    48      1.054176   4 C  s                18     -0.790148   2 C  s         
   105      0.653978   7 O  dzz             103     -0.580927   7 O  dyy       
    63     -0.534960   5 N  s                71      0.451497   5 N  dxy       
     3      0.429681   1 C  s                26     -0.390096   2 C  dxy       
    68     -0.385676   5 N  py              101      0.386109   7 O  dxy       

 Vector  115  Occ=0.000000D+00  E= 2.677394D+00
              MO Center= -1.8D-01, -5.4D-01, -4.8D-02, r^2= 3.7D+00
   Bfn.  Coefficient  Atom+Function         Bfn.  Coefficient  Atom+Function  
  ----- ------------  ---------------      ----- ------------  ---------------
    33      1.062773   3 C  s                63     -0.971116   5 N  s         
    59     -0.830377   4 C  dyz              29      0.754390   2 C  dyz       
    26      0.713722   2 C  dxy             104      0.686767   7 O  dyz       
    18     -0.678734   2 C  s                41     -0.559280   3 C  dxy       
   101      0.556728   7 O  dxy              72      0.552762   5 N  dxz       

 Vector  116  Occ=0.000000D+00  E= 2.759019D+00
              MO Center=  2.2D-01, -1.3D+00, -2.4D-01, r^2= 2.1D+00
   Bfn.  Coefficient  Atom+Function         Bfn.  Coefficient  Atom+Function  
  ----- ------------  ---------------      ----- ------------  ---------------
    63      2.282602   5 N  s                74     -1.378432   5 N  dyz       
    78     -1.066915   6 C  s                48     -0.907518   4 C  s         
    67     -0.765280   5 N  px               83     -0.716009   6 C  py        
    77     -0.564901   6 C  s               101      0.567243   7 O  dxy       
    56      0.511498   4 C  dxy              89      0.487960   6 C  dyz       

 Vector  117  Occ=0.000000D+00  E= 2.934674D+00
              MO Center=  4.1D-01, -9.9D-01, -5.0D-01, r^2= 1.8D+00
   Bfn.  Coefficient  Atom+Function         Bfn.  Coefficient  Atom+Function  
  ----- ------------  ---------------      ----- ------------  ---------------
    71      1.622148   5 N  dxy              68     -1.425991   5 N  py        
    48      1.305525   4 C  s                78     -0.935879   6 C  s         
    56     -0.924893   4 C  dxy              72     -0.709550   5 N  dxz       
    52      0.683067   4 C  px               53     -0.675854   4 C  py        
    33      0.631757   3 C  s                69      0.595623   5 N  pz        

 Vector  118  Occ=0.000000D+00  E= 3.050691D+00
              MO Center= -5.5D-01, -2.2D+00,  4.7D-01, r^2= 1.1D+00
   Bfn.  Coefficient  Atom+Function         Bfn.  Coefficient  Atom+Function  
  ----- ------------  ---------------      ----- ------------  ---------------
   102      1.156570   7 O  dxz             101      0.769226   7 O  dxy       
    87      0.703254   6 C  dxz              86      0.550305   6 C  dxy       
   105     -0.514610   7 O  dzz             100      0.479444   7 O  dxx       
    90     -0.416851   6 C  dzz              85      0.311407   6 C  dxx       
    99      0.246694   7 O  pz              104     -0.239895   7 O  dyz       

 Vector  119  Occ=0.000000D+00  E= 3.245295D+00
              MO Center= -3.1D-01, -2.0D+00,  3.1D-01, r^2= 1.5D+00
   Bfn.  Coefficient  Atom+Function         Bfn.  Coefficient  Atom+Function  
  ----- ------------  ---------------      ----- ------------  ---------------
   101      1.254944   7 O  dxy              86      1.130332   6 C  dxy       
   102     -0.709062   7 O  dxz              74      0.668558   5 N  dyz       
    89     -0.642480   6 C  dyz             104     -0.568373   7 O  dyz       
    18      0.477236   2 C  s                87     -0.478826   6 C  dxz       
    93      0.462117   7 O  s                48     -0.405488   4 C  s         

 Vector  120  Occ=0.000000D+00  E= 3.486447D+00
              MO Center= -6.6D-01, -2.2D+00,  5.3D-01, r^2= 1.0D+00
   Bfn.  Coefficient  Atom+Function         Bfn.  Coefficient  Atom+Function  
  ----- ------------  ---------------      ----- ------------  ---------------
    93      1.979154   7 O  s               102     -1.172469   7 O  dxz       
    77     -1.080962   6 C  s                97      1.040434   7 O  px        
   100      0.964456   7 O  dxx              87      0.828145   6 C  dxz       
    78     -0.814749   6 C  s                79      0.772766   6 C  px        
   103     -0.628215   7 O  dyy              82      0.609201   6 C  px        

 Vector  121  Occ=0.000000D+00  E= 4.811550D+00
              MO Center= -3.6D-02,  1.3D+00,  6.9D-02, r^2= 1.9D+00
   Bfn.  Coefficient  Atom+Function         Bfn.  Coefficient  Atom+Function  
  ----- ------------  ---------------      ----- ------------  ---------------
    17      2.314975   2 C  s                 2      2.095311   1 C  s         
    32      2.044855   3 C  s                47      1.666062   4 C  s         
    30     -1.095197   2 C  dzz              28     -1.057710   2 C  dyy       
    25     -1.031704   2 C  dxx              15     -0.937443   1 C  dzz       
    13     -0.921399   1 C  dyy              45     -0.903811   3 C  dzz       

 Vector  122  Occ=0.000000D+00  E= 4.948486D+00
              MO Center= -2.1D-01,  1.9D+00,  1.5D-01, r^2= 2.2D+00
   Bfn.  Coefficient  Atom+Function         Bfn.  Coefficient  Atom+Function  
  ----- ------------  ---------------      ----- ------------  ---------------
    32      3.234102   3 C  s                 2     -2.610885   1 C  s         
    43     -1.463141   3 C  dyy              40     -1.447960   3 C  dxx       
    45     -1.424668   3 C  dzz              10      1.196979   1 C  dxx       
    13      1.150611   1 C  dyy              15      1.150910   1 C  dzz       
    31     -0.742751   3 C  s                47     -0.607585   4 C  s         

 Vector  123  Occ=0.000000D+00  E= 4.975164D+00
              MO Center=  2.2D-01,  4.1D-01, -3.7D-01, r^2= 2.6D+00
   Bfn.  Coefficient  Atom+Function         Bfn.  Coefficient  Atom+Function  
  ----- ------------  ---------------      ----- ------------  ---------------
    47      3.145747   4 C  s                 2     -2.132298   1 C  s         
    58     -1.478621   4 C  dyy              60     -1.421124   4 C  dzz       
    55     -1.408131   4 C  dxx              77      1.038238   6 C  s         
    32     -1.014216   3 C  s                10      0.995046   1 C  dxx       
    13      0.940145   1 C  dyy              15      0.929461   1 C  dzz       

 Vector  124  Occ=0.000000D+00  E= 4.984702D+00
              MO Center=  2.7D-01, -1.9D+00,  1.0D-01, r^2= 1.3D+00
   Bfn.  Coefficient  Atom+Function         Bfn.  Coefficient  Atom+Function  
  ----- ------------  ---------------      ----- ------------  ---------------
    77      3.899445   6 C  s                85     -1.952021   6 C  dxx       
    88     -1.813844   6 C  dyy              90     -1.793058   6 C  dzz       
    47     -0.992409   4 C  s                76     -0.910853   6 C  s         
    63      0.515646   5 N  s                78     -0.503788   6 C  s         
    58      0.480256   4 C  dyy              60      0.472477   4 C  dzz       

 Vector  125  Occ=0.000000D+00  E= 5.193535D+00
              MO Center= -1.2D-01,  1.1D+00,  9.4D-02, r^2= 1.4D+00
   Bfn.  Coefficient  Atom+Function         Bfn.  Coefficient  Atom+Function  
  ----- ------------  ---------------      ----- ------------  ---------------
    17      3.425068   2 C  s                47     -1.649645   4 C  s         
    25     -1.625500   2 C  dxx              28     -1.607267   2 C  dyy       
    30     -1.538395   2 C  dzz              32     -1.453011   3 C  s         
     2     -1.392485   1 C  s                58      0.783243   4 C  dyy       
    16     -0.774113   2 C  s                60      0.777638   4 C  dzz       

 Vector  126  Occ=0.000000D+00  E= 5.584264D+00
              MO Center=  6.8D-01, -1.1D+00, -5.8D-01, r^2= 7.4D-01
   Bfn.  Coefficient  Atom+Function         Bfn.  Coefficient  Atom+Function  
  ----- ------------  ---------------      ----- ------------  ---------------
    62      2.942517   5 N  s                73     -1.768227   5 N  dyy       
    63      1.667062   5 N  s                75     -1.640115   5 N  dzz       
    70     -1.617347   5 N  dxx              47     -0.858646   4 C  s         
    61      0.823285   5 N  s                48     -0.786328   4 C  s         
    77     -0.737897   6 C  s                58      0.483331   4 C  dyy       

 Vector  127  Occ=0.000000D+00  E= 6.036276D+00
              MO Center= -8.8D-01, -2.2D+00,  6.4D-01, r^2= 5.6D-01
   Bfn.  Coefficient  Atom+Function         Bfn.  Coefficient  Atom+Function  
  ----- ------------  ---------------      ----- ------------  ---------------
    92      2.243894   7 O  s                93      2.133458   7 O  s         
   100     -1.588904   7 O  dxx             105     -1.535030   7 O  dzz       
   103     -1.525852   7 O  dyy              91      0.761276   7 O  s         
    82      0.738924   6 C  px               48     -0.698205   4 C  s         
    78     -0.700950   6 C  s                18      0.500454   2 C  s         


 center of mass
 --------------
 x =  -0.02861479 y =  -0.14447905 z =   0.03564085

 moments of inertia (a.u.)
 ------------------
        1209.352148681986           6.543643255854           3.910462091541
           6.543643255854         403.384133690184          11.454552696869
           3.910462091541          11.454552696869        1348.159845220312

     Multipole analysis of the density
     ---------------------------------

     L   x y z        total         alpha         beta         nuclear
     -   - - -        -----         -----         ----         -------
     0   0 0 0     -0.000000    -28.000000    -28.000000     56.000000

     1   1 0 0      1.483844      0.613113      0.613113      0.257618
     1   0 1 0      0.804944     -0.442729     -0.442729      1.690403
     1   0 0 1     -0.870598     -0.973749     -0.973749      1.076899

     2   2 0 0    -31.989508   -102.066605   -102.066605    172.143703
     2   1 1 0     -5.653323      4.548917      4.548917    -14.751157
     2   1 0 1     -0.043735     -1.167350     -1.167350      2.290965
     2   0 2 0    -36.162677   -324.498403   -324.498403    612.834129
     2   0 1 1      2.307120      1.893794      1.893794     -1.480468
     2   0 0 2    -32.803785    -59.371368    -59.371368     85.938952


------------------------------------------------------------
EAF file 3: "/data/EMPTY.aoints.0" size=178257920 bytes
------------------------------------------------------------
               write      read    awrite     aread      wait
               -----      ----    ------     -----      ----
     calls:      378         8         0      2410      2410
   data(b): 1.98e+08  4.19e+06  0.00e+00  1.26e+09
   time(s): 0.00e+00  0.00e+00  0.00e+00  0.00e+00  0.00e+00
rate(mb/s): 0.00e+00  0.00e+00
------------------------------------------------------------


 Parallel integral file used     679 records with       0 large values


 Task  times  cpu:       19.1s     wall:       19.1s


                                NWChem Input Module
                                -------------------


 Summary of allocated global arrays
-----------------------------------
  No active global arrays


MA_summarize_allocated_blocks: starting scan ...
MA_summarize_allocated_blocks: scan completed: 0 heap blocks, 0 stack blocks
MA usage statistics:

	allocation statistics:
					      heap	     stack
					      ----	     -----
	current number of blocks	         0	         0
	maximum number of blocks	        24	        61
	current total bytes		         0	         0
	maximum total bytes		  12622320	  84698088
	maximum total K-bytes		     12623	     84699
	maximum total M-bytes		        13	        85


                                     CITATION
                                     --------
                Please cite the following reference when publishing
                           results obtained with NWChem:

          E. Apra, E. J. Bylaska, W. A. de Jong, N. Govind, K. Kowalski,
       T. P. Straatsma, M. Valiev, H. J. J. van Dam, Y. Alexeev, J. Anchell,
       V. Anisimov, F. W. Aquino, R. Atta-Fynn, J. Autschbach, N. P. Bauman,
     J. C. Becca, D. E. Bernholdt, K. Bhaskaran-Nair, S. Bogatko, P. Borowski,
         J. Boschen, J. Brabec, A. Bruner, E. Cauet, Y. Chen, G. N. Chuev,
      C. J. Cramer, J. Daily, M. J. O. Deegan, T. H. Dunning Jr., M. Dupuis,
   K. G. Dyall, G. I. Fann, S. A. Fischer, A. Fonari, H. Fruchtl, L. Gagliardi,
      J. Garza, N. Gawande, S. Ghosh, K. Glaesemann, A. W. Gotz, J. Hammond,
       V. Helms, E. D. Hermes, K. Hirao, S. Hirata, M. Jacquelin, L. Jensen,
   B. G. Johnson, H. Jonsson, R. A. Kendall, M. Klemm, R. Kobayashi, V. Konkov,
      S. Krishnamoorthy, M. Krishnan, Z. Lin, R. D. Lins, R. J. Littlefield,
      A. J. Logsdail, K. Lopata, W. Ma, A. V. Marenich, J. Martin del Campo,
   D. Mejia-Rodriguez, J. E. Moore, J. M. Mullin, T. Nakajima, D. R. Nascimento,
    J. A. Nichols, P. J. Nichols, J. Nieplocha, A. Otero-de-la-Roza, B. Palmer,
    A. Panyala, T. Pirojsirikul, B. Peng, R. Peverati, J. Pittner, L. Pollack,
   R. M. Richard, P. Sadayappan, G. C. Schatz, W. A. Shelton, D. W. Silverstein,
   D. M. A. Smith, T. A. Soares, D. Song, M. Swart, H. L. Taylor, G. S. Thomas,
            V. Tipparaju, D. G. Truhlar, K. Tsemekhman, T. Van Voorhis,
      A. Vazquez-Mayagoitia, P. Verma, O. Villa, A. Vishnu, K. D. Vogiatzis,
        D. Wang, J. H. Weare, M. J. Williamson, T. L. Windus, K. Wolinski,
        A. T. Wong, Q. Wu, C. Yang, Q. Yu, M. Zacharias, Z. Zhang, Y. Zhao,
                                and R. J. Harrison
                        "NWChem: Past, present, and future
                         J. Chem. Phys. 152, 184102 (2020)
                               doi:10.1063/5.0004997

                                      AUTHORS
                                      -------
  E. Apra, E. J. Bylaska, N. Govind, K. Kowalski, M. Valiev, D. Mejia-Rodriguez,
       A. Kunitsa, N. P. Bauman, A. Panyala, W. A. de Jong, T. P. Straatsma,
   H. J. J. van Dam, D. Wang, T. L. Windus, J. Hammond, J. Autschbach, A. Woods,
    K. Bhaskaran-Nair, J. Brabec, K. Lopata, S. A. Fischer, S. Krishnamoorthy,
     M. Jacquelin, W. Ma, M. Klemm, O. Villa, Y. Chen, V. Anisimov, F. Aquino,
     S. Hirata, M. T. Hackler, E. Hermes, L. Jensen, J. E. Moore, J. C. Becca,
      V. Konjkov, T. Risthaus, M. Malagoli, A. Marenich, A. Otero-de-la-Roza,
        J. Mullin, P. Nichols, R. Peverati, J. Pittner, Y. Zhao, P.-D. Fan,
        A. Fonari, M. J. Williamson, R. J. Harrison, J. R. Rehr, M. Dupuis,
     D. Silverstein, D. M. A. Smith, J. Nieplocha, V. Tipparaju, M. Krishnan,
     B. E. Van Kuiken, A. Vazquez-Mayagoitia, M. Swart, Q. Wu, T. Van Voorhis,
     A. A. Auer, M. Nooijen, L. D. Crosby, E. Brown, G. Cisneros, G. I. Fann,
   H. Fruchtl, J. Garza, K. Hirao, R. A. Kendall, J. A. Nichols, K. Tsemekhman,
    K. Wolinski, J. Anchell, D. E. Bernholdt, P. Borowski, T. Clark, D. Clerc,
   H. Dachsel, M. J. O. Deegan, K. Dyall, D. Elwood, E. Glendening, M. Gutowski,
   A. C. Hess, J. Jaffe, B. G. Johnson, J. Ju, R. Kobayashi, R. Kutteh, Z. Lin,
   R. Littlefield, X. Long, B. Meng, T. Nakajima, S. Niu, L. Pollack, M. Rosing,
   K. Glaesemann, G. Sandrone, M. Stave, H. Taylor, G. Thomas, J. H. van Lenthe,
                               A. T. Wong, Z. Zhang.

 Total times  cpu:      430.6s     wall:      430.6s
