 argument  1 = prod_2.nw
  NWChem w/ OpenMP: maximum threads =    1
                                         
                                         


             Northwest Computational Chemistry Package (NWChem) 7.2.3
             --------------------------------------------------------


                    Environmental Molecular Sciences Laboratory
                       Pacific Northwest National Laboratory
                                Richland, WA 99352

                              Copyright (c) 1994-2022
                       Pacific Northwest National Laboratory
                            Battelle Memorial Institute

             NWChem is an open-source computational chemistry package
                        distributed under the terms of the
                      Educational Community License (ECL) 2.0
             A copy of the license is included with this distribution
                              in the LICENSE.TXT file

                                  ACKNOWLEDGMENT
                                  --------------

            This software and its documentation were developed at the
            EMSL at Pacific Northwest National Laboratory, a multiprogram
            national laboratory, operated for the U.S. Department of Energy
            by Battelle under Contract Number DE-AC05-76RL01830. Support
            for this work was provided by the Department of Energy Office
            of Biological and Environmental Research, Office of Basic
            Energy Sciences, and the Office of Advanced Scientific Computing.


           Job information
           ---------------

    hostname        = 6682615a2a68
    program         = nwchem
    date            = Wed Sep 10 22:05:10 2025

    compiled        = Fri_Jul_11_19:03:44_2025
    source          = /opt/nwchem
    nwchem branch   = 7.2.3
    nwchem revision = N/A
    ga revision     = 5.9.2
    use scalapack   = T
    input           = prod_2.nw
    prefix          = EMPTY.
    data base       = /data/EMPTY.db
    status          = startup
    nproc           =        2
    time left       =     -1s



           Memory information
           ------------------

    heap     =     16777212 doubles =      128.0 Mbytes
    stack    =     16777217 doubles =      128.0 Mbytes
    global   =     33554432 doubles =      256.0 Mbytes (distinct from heap & stack)
    total    =     67108861 doubles =      512.0 Mbytes
    verify   = yes
    hardfail = no 


           Directory information
           ---------------------

  0 permanent = /data
  0 scratch   = /data




                                NWChem Input Module
                                -------------------


                                   prod_2_redox
                                   ------------

 Scaling coordinates for geometry "geometry" by  1.889725989
 (inverse scale =  0.529177249)

 C1  symmetry detected

          ------
          auto-z
          ------
  no constraints, skipping    0.0000000000000000     
  no constraints, skipping    0.0000000000000000     


                             Geometry "geometry" -> ""
                             -------------------------

 Output coordinates in angstroms (scale by  1.889725989 to convert to a.u.)

  No.       Tag          Charge          X              Y              Z
 ---- ---------------- ---------- -------------- -------------- --------------
    1 C                    6.0000    -0.16909548    -2.71400748    -0.16991547
    2 N                    7.0000     0.35507155    -1.43121898     0.27850809
    3 C                    6.0000    -0.51539202    -0.33298791    -0.14450622
    4 C                    6.0000     0.00573852     1.03161113     0.34673126
    5 C                    6.0000     1.39725643     1.35690490    -0.20258778
    6 C                    6.0000    -0.97810361     2.13342656    -0.05567349
    7 H                    1.0000    -0.26326708    -2.74558688    -1.26008046
    8 H                    1.0000    -1.14462822    -2.92723589     0.27990156
    9 H                    1.0000     0.51895780    -3.51276115     0.12400053
   10 H                    1.0000     0.43227107    -1.43276623     1.29540005
   11 H                    1.0000    -0.58825522    -0.31971682    -1.23959951
   12 H                    1.0000    -1.52481610    -0.49153207     0.25339134
   13 H                    1.0000     0.06483981     1.01640283     1.44287448
   14 H                    1.0000     1.40092239     1.35812915    -1.29803282
   15 H                    1.0000     1.72614811     2.34517086     0.13638727
   16 H                    1.0000     2.14147407     0.63059629     0.13946259
   17 H                    1.0000    -1.97219306     1.93828804     0.35987633
   18 H                    1.0000    -0.64602309     3.10800552     0.31726906
   19 H                    1.0000    -1.07335435     2.20185606    -1.14469685

      Atomic Mass 
      ----------- 

      C                 12.000000
      N                 14.003070
      H                  1.007825


 Effective nuclear repulsion energy (a.u.)     257.0739321738

            Nuclear Dipole moment (a.u.) 
            ----------------------------
        X                 Y               Z
 ---------------- ---------------- ----------------
    -0.0000000000     0.0000000000    -0.0000000000



                                Z-matrix (autoz)
                                -------- 

 Units are Angstrom for bonds and degrees for angles

      Type          Name      I     J     K     L     M      Value
      ----------- --------  ----- ----- ----- ----- ----- ----------
    1 Stretch                  1     2                       1.45650
    2 Stretch                  1     7                       1.09468
    3 Stretch                  1     8                       1.09520
    4 Stretch                  1     9                       1.09445
    5 Stretch                  2     3                       1.46382
    6 Stretch                  2    10                       1.01982
    7 Stretch                  3     4                       1.54111
    8 Stretch                  3    11                       1.09759
    9 Stretch                  3    12                       1.09654
   10 Stretch                  4     5                       1.53098
   11 Stretch                  4     6                       1.53097
   12 Stretch                  4    13                       1.09784
   13 Stretch                  5    14                       1.09545
   14 Stretch                  5    15                       1.09533
   15 Stretch                  5    16                       1.09471
   16 Stretch                  6    17                       1.09498
   17 Stretch                  6    18                       1.09507
   18 Stretch                  6    19                       1.09532
   19 Bend                     1     2     3               110.96501
   20 Bend                     1     2    10               109.44496
   21 Bend                     2     1     7               111.28303
   22 Bend                     2     1     8               111.44340
   23 Bend                     2     1     9               109.50273
   24 Bend                     2     3     4               111.78494
   25 Bend                     2     3    11               109.68622
   26 Bend                     2     3    12               109.51624
   27 Bend                     3     2    10               109.53022
   28 Bend                     3     4     5               112.40296
   29 Bend                     3     4     6               109.64349
   30 Bend                     3     4    13               108.91715
   31 Bend                     4     3    11               109.25487
   32 Bend                     4     3    12               108.88370
   33 Bend                     4     5    14               111.22799
   34 Bend                     4     5    15               110.70659
   35 Bend                     4     5    16               111.39674
   36 Bend                     4     6    17               110.81857
   37 Bend                     4     6    18               110.86128
   38 Bend                     4     6    19               111.23397
   39 Bend                     5     4     6               109.68599
   40 Bend                     5     4    13               108.19556
   41 Bend                     6     4    13               107.87861
   42 Bend                     7     1     8               109.07338
   43 Bend                     7     1     9               107.48605
   44 Bend                     8     1     9               107.91425
   45 Bend                    11     3    12               107.61850
   46 Bend                    14     5    15               107.90613
   47 Bend                    14     5    16               108.11486
   48 Bend                    15     5    16               107.32510
   49 Bend                    17     6    18               107.73823
   50 Bend                    17     6    19               108.02960
   51 Bend                    18     6    19               108.02182
   52 Torsion                  1     2     3     4         178.75704
   53 Torsion                  1     2     3    11         -59.89919
   54 Torsion                  1     2     3    12          57.99712
   55 Torsion                  2     3     4     5          60.79972
   56 Torsion                  2     3     4     6        -176.92267
   57 Torsion                  2     3     4    13         -59.08873
   58 Torsion                  3     2     1     7          59.07437
   59 Torsion                  3     2     1     8         -62.91610
   60 Torsion                  3     2     1     9         177.76361
   61 Torsion                  3     4     5    14          58.16088
   62 Torsion                  3     4     5    15         178.12422
   63 Torsion                  3     4     5    16         -62.53282
   64 Torsion                  3     4     6    17          58.24451
   65 Torsion                  3     4     6    18         177.82987
   66 Torsion                  3     4     6    19         -61.95338
   67 Torsion                  4     3     2    10          57.81451
   68 Torsion                  5     4     3    11         -60.79322
   69 Torsion                  5     4     3    12        -178.07294
   70 Torsion                  5     4     6    17        -177.87288
   71 Torsion                  5     4     6    18         -58.28752
   72 Torsion                  5     4     6    19          61.92923
   73 Torsion                  6     4     3    11          61.48439
   74 Torsion                  6     4     3    12         -55.79533
   75 Torsion                  6     4     5    14         -64.09267
   76 Torsion                  6     4     5    15          55.87067
   77 Torsion                  6     4     5    16         175.21363
   78 Torsion                  7     1     2    10        -179.93283
   79 Torsion                  8     1     2    10          58.07670
   80 Torsion                  9     1     2    10         -61.24359
   81 Torsion                 10     2     3    11         179.15828
   82 Torsion                 10     2     3    12         -62.94541
   83 Torsion                 11     3     4    13         179.31834
   84 Torsion                 12     3     4    13          62.03861
   85 Torsion                 13     4     5    14         178.46724
   86 Torsion                 13     4     5    15         -61.56942
   87 Torsion                 13     4     5    16          57.77354
   88 Torsion                 13     4     6    17         -60.23485
   89 Torsion                 13     4     6    18          59.35051
   90 Torsion                 13     4     6    19         179.56726


            XYZ format geometry
            -------------------
    19
 geometry
 C                    -0.16909548    -2.71400748    -0.16991547
 N                     0.35507155    -1.43121898     0.27850809
 C                    -0.51539202    -0.33298791    -0.14450622
 C                     0.00573852     1.03161113     0.34673126
 C                     1.39725643     1.35690490    -0.20258778
 C                    -0.97810361     2.13342656    -0.05567349
 H                    -0.26326708    -2.74558688    -1.26008046
 H                    -1.14462822    -2.92723589     0.27990156
 H                     0.51895780    -3.51276115     0.12400053
 H                     0.43227107    -1.43276623     1.29540005
 H                    -0.58825522    -0.31971682    -1.23959951
 H                    -1.52481610    -0.49153207     0.25339134
 H                     0.06483981     1.01640283     1.44287448
 H                     1.40092239     1.35812915    -1.29803282
 H                     1.72614811     2.34517086     0.13638727
 H                     2.14147407     0.63059629     0.13946259
 H                    -1.97219306     1.93828804     0.35987633
 H                    -0.64602309     3.10800552     0.31726906
 H                    -1.07335435     2.20185606    -1.14469685

 ==============================================================================
                                internuclear distances
 ------------------------------------------------------------------------------
       center one      |      center two      | atomic units |  angstroms
 ------------------------------------------------------------------------------
    2 N                |   1 C                |     2.75238  |     1.45650
    3 C                |   2 N                |     2.76621  |     1.46382
    4 C                |   3 C                |     2.91228  |     1.54111
    5 C                |   4 C                |     2.89313  |     1.53098
    6 C                |   4 C                |     2.89312  |     1.53097
    7 H                |   1 C                |     2.06865  |     1.09468
    8 H                |   1 C                |     2.06963  |     1.09520
    9 H                |   1 C                |     2.06820  |     1.09445
   10 H                |   2 N                |     1.92718  |     1.01982
   11 H                |   3 C                |     2.07415  |     1.09759
   12 H                |   3 C                |     2.07216  |     1.09654
   13 H                |   4 C                |     2.07462  |     1.09784
   14 H                |   5 C                |     2.07010  |     1.09545
   15 H                |   5 C                |     2.06987  |     1.09533
   16 H                |   5 C                |     2.06870  |     1.09471
   17 H                |   6 C                |     2.06921  |     1.09498
   18 H                |   6 C                |     2.06937  |     1.09507
   19 H                |   6 C                |     2.06986  |     1.09532
 ------------------------------------------------------------------------------
                         number of included internuclear distances:         18
 ==============================================================================



 ==============================================================================
                                 internuclear angles
 ------------------------------------------------------------------------------
        center 1       |       center 2       |       center 3       |  degrees
 ------------------------------------------------------------------------------
    2 N                |   1 C                |   7 H                |   111.28
    2 N                |   1 C                |   8 H                |   111.44
    2 N                |   1 C                |   9 H                |   109.50
    7 H                |   1 C                |   8 H                |   109.07
    7 H                |   1 C                |   9 H                |   107.49
    8 H                |   1 C                |   9 H                |   107.91
    1 C                |   2 N                |   3 C                |   110.97
    1 C                |   2 N                |  10 H                |   109.44
    3 C                |   2 N                |  10 H                |   109.53
    2 N                |   3 C                |   4 C                |   111.78
    2 N                |   3 C                |  11 H                |   109.69
    2 N                |   3 C                |  12 H                |   109.52
    4 C                |   3 C                |  11 H                |   109.25
    4 C                |   3 C                |  12 H                |   108.88
   11 H                |   3 C                |  12 H                |   107.62
    3 C                |   4 C                |   5 C                |   112.40
    3 C                |   4 C                |   6 C                |   109.64
    3 C                |   4 C                |  13 H                |   108.92
    5 C                |   4 C                |   6 C                |   109.69
    5 C                |   4 C                |  13 H                |   108.20
    6 C                |   4 C                |  13 H                |   107.88
    4 C                |   5 C                |  14 H                |   111.23
    4 C                |   5 C                |  15 H                |   110.71
    4 C                |   5 C                |  16 H                |   111.40
   14 H                |   5 C                |  15 H                |   107.91
   14 H                |   5 C                |  16 H                |   108.11
   15 H                |   5 C                |  16 H                |   107.33
    4 C                |   6 C                |  17 H                |   110.82
    4 C                |   6 C                |  18 H                |   110.86
    4 C                |   6 C                |  19 H                |   111.23
   17 H                |   6 C                |  18 H                |   107.74
   17 H                |   6 C                |  19 H                |   108.03
   18 H                |   6 C                |  19 H                |   108.02
 ------------------------------------------------------------------------------
                            number of included internuclear angles:         33
 ==============================================================================





 Summary of "ao basis" -> "" (cartesian)
 ------------------------------------------------------------------------------
       Tag                 Description            Shells   Functions and Types
 ---------------- ------------------------------  ------  ---------------------
 *                         def2-SV(P)                 on all atoms 


  pbe96 is a nonlocal functional; adding pw91lda local functional. 


                           NWChem Geometry Optimization
                           ----------------------------




                                   prod_2_redox


  no constraints, skipping    0.0000000000000000     
 maximum gradient threshold         (gmax) =   0.000450
 rms gradient threshold             (grms) =   0.000300
 maximum cartesian step threshold   (xmax) =   0.001800
 rms cartesian step threshold       (xrms) =   0.001200
 fixed trust radius                (trust) =   0.300000
 maximum step size to saddle      (sadstp) =   0.100000
 energy precision                  (eprec) =   5.0D-06
 maximum number of steps          (nptopt) =  300
 initial hessian option           (inhess) =    0
 line search option               (linopt) =    1
 hessian update option            (modupd) =    1
 saddle point option              (modsad) =    0
 initial eigen-mode to follow     (moddir) =    0
 initial variable to follow       (vardir) =    0
 follow first negative mode     (firstneg) =    T
 apply conjugacy                    (opcg) =    F
 source of zmatrix                         =   autoz   


          -------------------
          Energy Minimization
          -------------------


 Names of Z-matrix variables 
    1              2              3              4              5         
    6              7              8              9             10         
   11             12             13             14             15         
   16             17             18             19             20         
   21             22             23             24             25         
   26             27             28             29             30         
   31             32             33             34             35         
   36             37             38             39             40         
   41             42             43             44             45         
   46             47             48             49             50         
   51             52             53             54             55         
   56             57             58             59             60         
   61             62             63             64             65         
   66             67             68             69             70         
   71             72             73             74             75         
   76             77             78             79             80         
   81             82             83             84             85         
   86             87             88             89             90         

 Variables with the same non-blank name are constrained to be equal


 Using diagonal initial Hessian 
 Scaling for Hessian diagonals: bonds = 1.00  angles = 0.25  torsions = 0.10

          --------
          Step   0
          --------


                         Geometry "geometry" -> "geometry"
                         ---------------------------------

 Output coordinates in angstroms (scale by  1.889725989 to convert to a.u.)

  No.       Tag          Charge          X              Y              Z
 ---- ---------------- ---------- -------------- -------------- --------------
    1 C                    6.0000    -0.16909548    -2.71400748    -0.16991547
    2 N                    7.0000     0.35507155    -1.43121898     0.27850809
    3 C                    6.0000    -0.51539202    -0.33298791    -0.14450622
    4 C                    6.0000     0.00573852     1.03161113     0.34673126
    5 C                    6.0000     1.39725643     1.35690490    -0.20258778
    6 C                    6.0000    -0.97810361     2.13342656    -0.05567349
    7 H                    1.0000    -0.26326708    -2.74558688    -1.26008046
    8 H                    1.0000    -1.14462822    -2.92723589     0.27990156
    9 H                    1.0000     0.51895780    -3.51276115     0.12400053
   10 H                    1.0000     0.43227107    -1.43276623     1.29540005
   11 H                    1.0000    -0.58825522    -0.31971682    -1.23959951
   12 H                    1.0000    -1.52481610    -0.49153207     0.25339134
   13 H                    1.0000     0.06483981     1.01640283     1.44287448
   14 H                    1.0000     1.40092239     1.35812915    -1.29803282
   15 H                    1.0000     1.72614811     2.34517086     0.13638727
   16 H                    1.0000     2.14147407     0.63059629     0.13946259
   17 H                    1.0000    -1.97219306     1.93828804     0.35987633
   18 H                    1.0000    -0.64602309     3.10800552     0.31726906
   19 H                    1.0000    -1.07335435     2.20185606    -1.14469685

      Atomic Mass 
      ----------- 

      C                 12.000000
      N                 14.003070
      H                  1.007825


 Effective nuclear repulsion energy (a.u.)     257.0739321738

            Nuclear Dipole moment (a.u.) 
            ----------------------------
        X                 Y               Z
 ---------------- ---------------- ----------------
    -0.0000000000     0.0000000000    -0.0000000000


                                 NWChem DFT Module
                                 -----------------


                                   prod_2_redox


                      Basis "ao basis" -> "ao basis" (cartesian)
                      -----
  C (Carbon)
  ----------
            Exponent  Coefficients 
       -------------- ---------------------------------------------------------
  1 S  1.23840169E+03  0.005457
  1 S  1.86290050E+02  0.040638
  1 S  4.22511763E+01  0.180256
  1 S  1.16765579E+01  0.463151
  1 S  3.59305065E+00  0.440872

  2 S  4.02451474E-01  1.000000

  3 S  1.30901827E-01  1.000000

  4 P  9.46809706E+00  0.038388
  4 P  2.01035451E+00  0.211170
  4 P  5.47710047E-01  0.513282

  5 P  1.52686138E-01  1.000000

  6 D  8.00000000E-01  1.000000

  N (Nitrogen)
  ------------
            Exponent  Coefficients 
       -------------- ---------------------------------------------------------
  1 S  1.71284159E+03 -0.005393
  1 S  2.57648127E+02 -0.040222
  1 S  5.84582459E+01 -0.179311
  1 S  1.61983679E+01 -0.463763
  1 S  5.00526008E+00 -0.441714

  2 S  5.87318566E-01  1.000000

  3 S  1.87645923E-01  1.000000

  4 P  1.35714702E+01 -0.040072
  4 P  2.92573729E+00 -0.218070
  4 P  7.99277508E-01 -0.512945

  5 P  2.19543480E-01  1.000000

  6 D  1.00000000E+00  1.000000

  H (Hydrogen)
  ------------
            Exponent  Coefficients 
       -------------- ---------------------------------------------------------
  1 S  1.30107010E+01  0.019682
  1 S  1.96225720E+00  0.137965
  1 S  4.44537960E-01  0.478319

  2 S  1.21949620E-01  1.000000



 Summary of "ao basis" -> "ao basis" (cartesian)
 ------------------------------------------------------------------------------
       Tag                 Description            Shells   Functions and Types
 ---------------- ------------------------------  ------  ---------------------
 C                         def2-SV(P)                6       15   3s2p1d
 N                         def2-SV(P)                6       15   3s2p1d
 H                         def2-SV(P)                2        2   2s




 Summary of "ao basis" -> "ao basis" (cartesian)
 ------------------------------------------------------------------------------
       Tag                 Description            Shells   Functions and Types
 ---------------- ------------------------------  ------  ---------------------
 C                         def2-SV(P)                6       15   3s2p1d
 N                         def2-SV(P)                6       15   3s2p1d
 H                         def2-SV(P)                2        2   2s


  Caching 1-el integrals 

            General Information
            -------------------
          SCF calculation type: DFT
          Wavefunction type:  closed shell.
          No. of atoms     :    19
          No. of electrons :    50
           Alpha electrons :    25
            Beta electrons :    25
          Charge           :     0
          Spin multiplicity:     1
          Use of symmetry is: off; symmetry adaption is: off
          Maximum number of iterations:  50
          AO basis - number of functions:   116
                     number of shells:    62
          Convergence on energy requested:  1.00D-06
          Convergence on density requested:  1.00D-05
          Convergence on gradient requested:  5.00D-04

              XC Information
              --------------
          PerdewBurkeErnzerhof Exchange Functional  1.000          
            Perdew 1991 LDA Correlation Functional  1.000 local    
           PerdewBurkeErnz. Correlation Functional  1.000 non-local

             Grid Information
             ----------------
          Grid used for XC integration:  xcoarse   
          Radial quadrature: Mura-Knowles        
          Angular quadrature: Lebedev. 
          Tag              B.-S. Rad. Rad. Pts. Rad. Cut. Ang. Pts.
          ---              ---------- --------- --------- ---------
          C                   0.70       21          13.0       194
          N                   0.65       21          11.0       194
          H                   0.35       21          14.0       194
          Grid pruning is: on 
          Number of quadrature shells:   399
          Spatial weights used:  Erf1

          Convergence Information
          -----------------------
          Convergence aids based upon iterative change in 
          total energy or number of iterations. 
          Levelshifting, if invoked, occurs when the 
          HOMO/LUMO gap drops below (HL_TOL):  1.00D-02
          DIIS, if invoked, will attempt to extrapolate 
          using up to (NFOCK): 10 stored Fock matrices.

                    Damping( 0%)  Levelshifting(0.5)       DIIS
                  --------------- ------------------- ---------------
          dE  on:    start            ASAP                start   
          dE off:    2 iters         50 iters            50 iters 


      Screening Tolerance Information
      -------------------------------
          Density screening/tol_rho:  1.00D-10
          AO Gaussian exp screening on grid/accAOfunc:  14
          CD Gaussian exp screening on grid/accCDfunc:  20
          XC Gaussian exp screening on grid/accXCfunc:  20
          Schwarz screening/accCoul:  1.00D-08

      Dispersion Parameters
      ---------------------

             DFT-D3 Model   
          s6 scale factor  :        1.000000000000
          s8 scale factor  :        0.722000000000
          sr6 scale factor :        1.217000000000
          sr8 scale factor :        1.000000000000
              vdW contrib  :       -0.007231936029


      Superposition of Atomic Density Guess
      -------------------------------------

 Sum of atomic energies:        -248.85886134

      Non-variational initial energy
      ------------------------------

 Total energy =    -253.288497
 1-e energy   =    -841.773422
 2-e energy   =     331.410993
 HOMO         =      -0.280822
 LUMO         =       0.090378

   Time after variat. SCF:      0.2
   Time prior to 1st pass:      0.2
 Local filesystem for scratch_dir

 Integral file          = /data/EMPTY.aoints.0
 Record size in doubles =  65536        No. of integs per rec  =  43688
 Max. records in memory =    360        Max. records in file   =  13593
 No. of bits per label  =      8        No. of bits per value  =     64


 #quartets = 1.602D+06 #integrals = 1.807D+07 #direct =  0.0% #cached =100.0%


File balance: exchanges=     1  moved=     3  time=   0.0

 Local filesystem for scratch_dir

 Grid_pts file          = /data/EMPTY.gridpts.0
 Record size in doubles =  12289        No. of grid_pts per rec  =   3070
 Max. records in memory =     15        Max. recs in file   =     72498


           Memory utilization after 1st SCF pass: 
           Heap Space remaining (MW):        0.00                  34
          Stack Space remaining (MW):       16.78            16776052

   convergence    iter        energy       DeltaE   RMS-Dens  Diis-err    time
 ---------------- ----- ----------------- --------- --------- ---------  ------
 d= 0,ls=0.0,diis     1   -252.4851092362 -5.10D+02  9.83D-03  6.35D-01     1.1
 d= 0,ls=0.0,diis     2   -252.5231896141 -3.81D-02  5.26D-03  1.86D-01     1.4
 d= 0,ls=0.0,diis     3   -252.5264494550 -3.26D-03  2.46D-03  1.67D-01     1.6
 d= 0,ls=0.0,diis     4   -252.5434698608 -1.70D-02  4.37D-04  1.78D-03     1.9
 d= 0,ls=0.0,diis     5   -252.5436457099 -1.76D-04  1.32D-04  2.32D-04     2.1
  Resetting Diis
 d= 0,ls=0.0,diis     6   -252.5436747480 -2.90D-05  2.78D-05  7.68D-06     2.4
 d= 0,ls=0.0,diis     7   -252.5436756934 -9.45D-07  1.28D-05  4.00D-07     2.6
 d= 0,ls=0.0,diis     8   -252.5436756662  2.72D-08  6.50D-06  6.37D-07     2.9


         Total DFT energy =     -252.543675666176
      One electron energy =     -848.530032034310
           Coulomb energy =      377.363959647873
    Exchange-Corr. energy =      -38.444303517477
 Nuclear repulsion energy =      257.073932173766

    Dispersion correction =       -0.007231936029

 Numeric. integr. density =       49.997736896113

     Total iterative time =      2.7s



                       DFT Final Molecular Orbital Analysis
                       ------------------------------------

 Vector    1  Occ=2.000000D+00  E=-1.398615D+01
              MO Center=  3.5D-01, -1.4D+00,  2.8D-01, r^2= 2.0D-02
   Bfn.  Coefficient  Atom+Function         Bfn.  Coefficient  Atom+Function  
  ----- ------------  ---------------      ----- ------------  ---------------
    16      0.985385   2 N  s                17     -0.056086   2 N  s         
    18      0.033646   2 N  s         

 Vector    2  Occ=2.000000D+00  E=-9.917934D+00
              MO Center= -5.2D-01, -3.3D-01, -1.4D-01, r^2= 2.8D-02
   Bfn.  Coefficient  Atom+Function         Bfn.  Coefficient  Atom+Function  
  ----- ------------  ---------------      ----- ------------  ---------------
    31      0.986461   3 C  s                32      0.056895   3 C  s         
    33     -0.044416   3 C  s         

 Vector    3  Occ=2.000000D+00  E=-9.914473D+00
              MO Center= -1.7D-01, -2.7D+00, -1.7D-01, r^2= 2.8D-02
   Bfn.  Coefficient  Atom+Function         Bfn.  Coefficient  Atom+Function  
  ----- ------------  ---------------      ----- ------------  ---------------
     1      0.986370   1 C  s                 2      0.056514   1 C  s         
     3     -0.040829   1 C  s         

 Vector    4  Occ=2.000000D+00  E=-9.907006D+00
              MO Center=  5.7D-03,  1.0D+00,  3.5D-01, r^2= 2.8D-02
   Bfn.  Coefficient  Atom+Function         Bfn.  Coefficient  Atom+Function  
  ----- ------------  ---------------      ----- ------------  ---------------
    46      0.986558   4 C  s                48     -0.077450   4 C  s         
    47      0.058905   4 C  s         

 Vector    5  Occ=2.000000D+00  E=-9.889862D+00
              MO Center= -9.8D-01,  2.1D+00, -5.6D-02, r^2= 2.8D-02
   Bfn.  Coefficient  Atom+Function         Bfn.  Coefficient  Atom+Function  
  ----- ------------  ---------------      ----- ------------  ---------------
    76      0.986296   6 C  s                77      0.057778   6 C  s         
    78     -0.049177   6 C  s         

 Vector    6  Occ=2.000000D+00  E=-9.882694D+00
              MO Center=  1.4D+00,  1.4D+00, -2.0D-01, r^2= 2.8D-02
   Bfn.  Coefficient  Atom+Function         Bfn.  Coefficient  Atom+Function  
  ----- ------------  ---------------      ----- ------------  ---------------
    61      0.986300   5 C  s                62      0.057662   5 C  s         
    63     -0.048900   5 C  s         

 Vector    7  Occ=2.000000D+00  E=-8.114597D-01
              MO Center=  4.5D-02, -1.4D+00,  2.2D-01, r^2= 1.3D+00
   Bfn.  Coefficient  Atom+Function         Bfn.  Coefficient  Atom+Function  
  ----- ------------  ---------------      ----- ------------  ---------------
    17      0.431571   2 N  s                16      0.216662   2 N  s         
    32      0.207273   3 C  s                 2      0.186000   1 C  s         
    18      0.166634   2 N  s                97      0.134004  10 H  s         
    31     -0.111470   3 C  s                 1     -0.100935   1 C  s         
    19      0.089475   2 N  px                5      0.082010   1 C  py        

 Vector    8  Occ=2.000000D+00  E=-7.122330D-01
              MO Center= -1.8D-02,  9.1D-01,  9.3D-02, r^2= 2.8D+00
   Bfn.  Coefficient  Atom+Function         Bfn.  Coefficient  Atom+Function  
  ----- ------------  ---------------      ----- ------------  ---------------
    47      0.328680   4 C  s                77      0.225523   6 C  s         
    62      0.199785   5 C  s                46     -0.171912   4 C  s         
    32      0.132737   3 C  s                76     -0.120852   6 C  s         
     2     -0.120122   1 C  s                17     -0.118797   2 N  s         
    61     -0.108158   5 C  s               103      0.090022  13 H  s         

 Vector    9  Occ=2.000000D+00  E=-6.147680D-01
              MO Center= -2.6D-01, -9.3D-01, -8.5D-02, r^2= 5.0D+00
   Bfn.  Coefficient  Atom+Function         Bfn.  Coefficient  Atom+Function  
  ----- ------------  ---------------      ----- ------------  ---------------
     2      0.331772   1 C  s                32     -0.282882   3 C  s         
    77      0.198832   6 C  s                20      0.169086   2 N  py        
     1     -0.166195   1 C  s                31      0.138587   3 C  s         
    95      0.125312   9 H  s                91      0.114644   7 H  s         
    50      0.113704   4 C  py               93      0.111895   8 H  s         

 Vector   10  Occ=2.000000D+00  E=-6.033931D-01
              MO Center=  4.1D-01,  1.6D+00, -1.2D-01, r^2= 2.9D+00
   Bfn.  Coefficient  Atom+Function         Bfn.  Coefficient  Atom+Function  
  ----- ------------  ---------------      ----- ------------  ---------------
    62      0.372986   5 C  s                77     -0.296925   6 C  s         
    61     -0.187604   5 C  s                49      0.151234   4 C  px        
    76      0.148747   6 C  s               109      0.135920  16 H  s         
   105      0.132163  14 H  s               107      0.132087  15 H  s         
   111     -0.119337  17 H  s               115     -0.107263  19 H  s         

 Vector   11  Occ=2.000000D+00  E=-5.592333D-01
              MO Center= -2.6D-01, -1.1D+00, -1.2D-02, r^2= 4.2D+00
   Bfn.  Coefficient  Atom+Function         Bfn.  Coefficient  Atom+Function  
  ----- ------------  ---------------      ----- ------------  ---------------
     2      0.246886   1 C  s                17     -0.247486   2 N  s         
    32      0.230525   3 C  s                97     -0.202522  10 H  s         
    21      0.164923   2 N  pz               77     -0.145231   6 C  s         
    91      0.136364   7 H  s                 1     -0.124130   1 C  s         
    99      0.123245  11 H  s                16     -0.114143   2 N  s         

 Vector   12  Occ=2.000000D+00  E=-5.019593D-01
              MO Center=  3.4D-02,  7.2D-01,  1.2D-01, r^2= 3.8D+00
   Bfn.  Coefficient  Atom+Function         Bfn.  Coefficient  Atom+Function  
  ----- ------------  ---------------      ----- ------------  ---------------
    47      0.313395   4 C  s               103      0.205072  13 H  s         
    62     -0.150276   5 C  s                46     -0.144626   4 C  s         
    77     -0.136335   6 C  s                51      0.131016   4 C  pz        
    32     -0.126288   3 C  s                21     -0.124870   2 N  pz        
    35      0.124807   3 C  py               99     -0.119665  11 H  s         

 Vector   13  Occ=2.000000D+00  E=-4.261171D-01
              MO Center= -5.3D-02, -8.4D-01,  1.7D-01, r^2= 4.0D+00
   Bfn.  Coefficient  Atom+Function         Bfn.  Coefficient  Atom+Function  
  ----- ------------  ---------------      ----- ------------  ---------------
    21      0.295157   2 N  pz               97     -0.198746  10 H  s         
     5      0.181815   1 C  py               34      0.162148   3 C  px        
    35     -0.145559   3 C  py                6     -0.141177   1 C  pz        
   101     -0.138941  12 H  s                24     -0.127275   2 N  pz        
    95     -0.113625   9 H  s                50      0.095297   4 C  py        

 Vector   14  Occ=2.000000D+00  E=-4.155363D-01
              MO Center= -1.3D-01,  3.0D-01,  5.4D-02, r^2= 4.2D+00
   Bfn.  Coefficient  Atom+Function         Bfn.  Coefficient  Atom+Function  
  ----- ------------  ---------------      ----- ------------  ---------------
    51      0.230551   4 C  pz               36      0.162430   3 C  pz        
   101      0.157464  12 H  s                 4     -0.152471   1 C  px        
    35     -0.149708   3 C  py               64      0.143231   5 C  px        
    81      0.139628   6 C  pz               34     -0.129479   3 C  px        
   103      0.125331  13 H  s                19      0.117811   2 N  px        

 Vector   15  Occ=2.000000D+00  E=-3.951751D-01
              MO Center= -8.1D-02, -4.8D-01, -3.6D-02, r^2= 4.5D+00
   Bfn.  Coefficient  Atom+Function         Bfn.  Coefficient  Atom+Function  
  ----- ------------  ---------------      ----- ------------  ---------------
    20      0.289063   2 N  py               34     -0.250027   3 C  px        
     5      0.202093   1 C  py               50      0.164913   4 C  py        
    65      0.155634   5 C  py              101      0.141191  12 H  s         
     6      0.139448   1 C  pz               23     -0.135401   2 N  py        
    91     -0.128611   7 H  s                79      0.124564   6 C  px        

 Vector   16  Occ=2.000000D+00  E=-3.794350D-01
              MO Center= -2.2D-01, -2.6D-01,  7.0D-02, r^2= 6.4D+00
   Bfn.  Coefficient  Atom+Function         Bfn.  Coefficient  Atom+Function  
  ----- ------------  ---------------      ----- ------------  ---------------
     4      0.269873   1 C  px               93     -0.212166   8 H  s         
    79     -0.206729   6 C  px              111      0.186628  17 H  s         
    64      0.172445   5 C  px              109      0.146256  16 H  s         
    20      0.140517   2 N  py                7      0.110795   1 C  px        
    51      0.103835   4 C  pz               81      0.103128   6 C  pz        

 Vector   17  Occ=2.000000D+00  E=-3.564064D-01
              MO Center= -1.4D-01, -2.4D-01, -5.5D-02, r^2= 7.3D+00
   Bfn.  Coefficient  Atom+Function         Bfn.  Coefficient  Atom+Function  
  ----- ------------  ---------------      ----- ------------  ---------------
     5     -0.211762   1 C  py               95      0.212810   9 H  s         
    80      0.205236   6 C  py                4      0.202205   1 C  px        
   113      0.198799  18 H  s                99      0.143907  11 H  s         
    79      0.131422   6 C  px               93     -0.130689   8 H  s         
    33      0.128573   3 C  s                65      0.121383   5 C  py        

 Vector   18  Occ=2.000000D+00  E=-3.456462D-01
              MO Center=  2.3D-01, -6.2D-01, -3.1D-01, r^2= 5.8D+00
   Bfn.  Coefficient  Atom+Function         Bfn.  Coefficient  Atom+Function  
  ----- ------------  ---------------      ----- ------------  ---------------
     6      0.301609   1 C  pz               91     -0.241381   7 H  s         
    65     -0.194273   5 C  py               66      0.175663   5 C  pz        
    36     -0.170933   3 C  pz               49      0.151234   4 C  px        
     9      0.144622   1 C  pz              109      0.144003  16 H  s         
   105     -0.141129  14 H  s                99      0.139329  11 H  s         

 Vector   19  Occ=2.000000D+00  E=-3.342057D-01
              MO Center= -2.3D-01,  1.5D+00, -4.0D-01, r^2= 4.0D+00
   Bfn.  Coefficient  Atom+Function         Bfn.  Coefficient  Atom+Function  
  ----- ------------  ---------------      ----- ------------  ---------------
    81      0.348503   6 C  pz              115     -0.288911  19 H  s         
    66     -0.249146   5 C  pz              105      0.205547  14 H  s         
    84      0.166867   6 C  pz              113      0.128728  18 H  s         
    69     -0.118485   5 C  pz              111      0.104819  17 H  s         
   116     -0.099386  19 H  s                34      0.092029   3 C  px        

 Vector   20  Occ=2.000000D+00  E=-3.243568D-01
              MO Center= -1.1D-01, -1.9D-01, -1.6D-01, r^2= 5.4D+00
   Bfn.  Coefficient  Atom+Function         Bfn.  Coefficient  Atom+Function  
  ----- ------------  ---------------      ----- ------------  ---------------
    36      0.264693   3 C  pz               99     -0.214665  11 H  s         
     4      0.185210   1 C  px               97     -0.176193  10 H  s         
    80      0.159990   6 C  py               66     -0.158240   5 C  pz        
    21      0.151699   2 N  pz               95      0.138416   9 H  s         
   101      0.138902  12 H  s               105      0.135796  14 H  s         

 Vector   21  Occ=2.000000D+00  E=-3.176854D-01
              MO Center=  2.5D-01, -3.3D-01, -6.7D-02, r^2= 6.6D+00
   Bfn.  Coefficient  Atom+Function         Bfn.  Coefficient  Atom+Function  
  ----- ------------  ---------------      ----- ------------  ---------------
    65      0.243769   5 C  py                6      0.207683   1 C  pz        
   107      0.205091  15 H  s                91     -0.194543   7 H  s         
    34      0.190795   3 C  px               95      0.175187   9 H  s         
    21      0.151331   2 N  pz              113     -0.148877  18 H  s         
    80     -0.146433   6 C  py               97     -0.145952  10 H  s         

 Vector   22  Occ=2.000000D+00  E=-2.846594D-01
              MO Center=  1.8D-01,  1.2D+00,  7.2D-02, r^2= 3.3D+00
   Bfn.  Coefficient  Atom+Function         Bfn.  Coefficient  Atom+Function  
  ----- ------------  ---------------      ----- ------------  ---------------
    49      0.320118   4 C  px               64     -0.310538   5 C  px        
    79     -0.289760   6 C  px              109     -0.231771  16 H  s         
   111      0.199381  17 H  s                67     -0.166576   5 C  px        
    82     -0.147348   6 C  px              110     -0.120549  16 H  s         
    52      0.118971   4 C  px              112      0.116939  17 H  s         

 Vector   23  Occ=2.000000D+00  E=-2.826561D-01
              MO Center=  7.3D-02,  9.9D-01,  9.6D-02, r^2= 3.4D+00
   Bfn.  Coefficient  Atom+Function         Bfn.  Coefficient  Atom+Function  
  ----- ------------  ---------------      ----- ------------  ---------------
    51      0.289353   4 C  pz              103      0.283751  13 H  s         
    66     -0.190628   5 C  pz              105      0.167085  14 H  s         
   104      0.166241  13 H  s                64      0.162480   5 C  px        
   115      0.158644  19 H  s                81     -0.155343   6 C  pz        
    99      0.138390  11 H  s                50     -0.136224   4 C  py        

 Vector   24  Occ=2.000000D+00  E=-2.751336D-01
              MO Center=  3.4D-02,  5.7D-01,  6.3D-02, r^2= 4.3D+00
   Bfn.  Coefficient  Atom+Function         Bfn.  Coefficient  Atom+Function  
  ----- ------------  ---------------      ----- ------------  ---------------
    35      0.307503   3 C  py               50     -0.301427   4 C  py        
    80      0.190378   6 C  py              107      0.176256  15 H  s         
    38      0.164731   3 C  py              113      0.163186  18 H  s         
     5      0.162270   1 C  py               65      0.156146   5 C  py        
    20      0.150111   2 N  py               51     -0.148052   4 C  pz        

 Vector   25  Occ=2.000000D+00  E=-1.702012D-01
              MO Center=  2.2D-01, -1.4D+00,  1.7D-01, r^2= 1.9D+00
   Bfn.  Coefficient  Atom+Function         Bfn.  Coefficient  Atom+Function  
  ----- ------------  ---------------      ----- ------------  ---------------
    19      0.480967   2 N  px               22     -0.401992   2 N  px        
    18     -0.233812   2 N  s                21     -0.214420   2 N  pz        
    94     -0.184587   8 H  s               101     -0.180425  12 H  s         
    48      0.178801   4 C  s               102     -0.179175  12 H  s         
    93     -0.178128   8 H  s                17     -0.150813   2 N  s         

 Vector   26  Occ=0.000000D+00  E= 3.252923D-02
              MO Center= -2.7D-01, -3.7D-01,  7.3D-01, r^2= 7.7D+00
   Bfn.  Coefficient  Atom+Function         Bfn.  Coefficient  Atom+Function  
  ----- ------------  ---------------      ----- ------------  ---------------
    33      0.855420   3 C  s                 3      0.801107   1 C  s         
   102     -0.711189  12 H  s               104     -0.712047  13 H  s         
    98     -0.693523  10 H  s                78      0.673002   6 C  s         
    48      0.615119   4 C  s                18      0.570973   2 N  s         
    63      0.560752   5 C  s                94     -0.517907   8 H  s         

 Vector   27  Occ=0.000000D+00  E= 5.014191D-02
              MO Center= -2.5D-01,  5.3D-01, -4.0D-02, r^2= 1.0D+01
   Bfn.  Coefficient  Atom+Function         Bfn.  Coefficient  Atom+Function  
  ----- ------------  ---------------      ----- ------------  ---------------
    78      1.483250   6 C  s                 3     -0.838214   1 C  s         
   116     -0.838666  19 H  s                63      0.815128   5 C  s         
   114     -0.726573  18 H  s                98      0.691148  10 H  s         
    18     -0.670429   2 N  s               112     -0.575644  17 H  s         
   106     -0.540202  14 H  s                96      0.519796   9 H  s         

 Vector   28  Occ=0.000000D+00  E= 5.906647D-02
              MO Center= -2.6D-01, -8.2D-01, -3.2D-01, r^2= 8.3D+00
   Bfn.  Coefficient  Atom+Function         Bfn.  Coefficient  Atom+Function  
  ----- ------------  ---------------      ----- ------------  ---------------
     3      1.408814   1 C  s                92     -1.010552   7 H  s         
   104      0.947102  13 H  s               100     -0.906983  11 H  s         
    33      0.833663   3 C  s                48     -0.812662   4 C  s         
    94     -0.636534   8 H  s                96     -0.389067   9 H  s         
    98      0.386058  10 H  s                39     -0.364994   3 C  pz        

 Vector   29  Occ=0.000000D+00  E= 8.662307D-02
              MO Center=  1.6D-02,  7.4D-01,  2.7D-02, r^2= 9.1D+00
   Bfn.  Coefficient  Atom+Function         Bfn.  Coefficient  Atom+Function  
  ----- ------------  ---------------      ----- ------------  ---------------
    63      1.971516   5 C  s               106     -1.013714  14 H  s         
   112      0.970378  17 H  s               102      0.927946  12 H  s         
    78     -0.845142   6 C  s               108     -0.830442  15 H  s         
   110     -0.759863  16 H  s                33     -0.594912   3 C  s         
    96     -0.425151   9 H  s                37      0.417948   3 C  px        

 Vector   30  Occ=0.000000D+00  E= 9.041127D-02
              MO Center=  9.7D-02, -1.9D-01,  2.4D-02, r^2= 1.2D+01
   Bfn.  Coefficient  Atom+Function         Bfn.  Coefficient  Atom+Function  
  ----- ------------  ---------------      ----- ------------  ---------------
     3      1.713262   1 C  s               114     -1.127579  18 H  s         
    96     -1.064373   9 H  s                78      0.872775   6 C  s         
    18     -0.834078   2 N  s               100      0.595952  11 H  s         
   108     -0.546582  15 H  s                92     -0.525499   7 H  s         
    94     -0.510604   8 H  s               106      0.488633  14 H  s         

 Vector   31  Occ=0.000000D+00  E= 1.031629D-01
              MO Center=  2.6D-02,  1.7D-01, -2.0D-01, r^2= 1.2D+01
   Bfn.  Coefficient  Atom+Function         Bfn.  Coefficient  Atom+Function  
  ----- ------------  ---------------      ----- ------------  ---------------
    78      1.615294   6 C  s               116     -1.186310  19 H  s         
    96     -1.041441   9 H  s               108      1.009354  15 H  s         
    63     -0.859027   5 C  s               102      0.542241  12 H  s         
    92      0.523542   7 H  s               112     -0.509263  17 H  s         
    98     -0.498354  10 H  s                48     -0.481673   4 C  s         

 Vector   32  Occ=0.000000D+00  E= 1.122827D-01
              MO Center= -1.6D-01, -3.0D-01, -1.4D-01, r^2= 1.0D+01
   Bfn.  Coefficient  Atom+Function         Bfn.  Coefficient  Atom+Function  
  ----- ------------  ---------------      ----- ------------  ---------------
   110      1.081686  16 H  s                92      1.021610   7 H  s         
   112      1.005091  17 H  s                94     -0.784135   8 H  s         
   116     -0.623398  19 H  s                63     -0.605377   5 C  s         
     3     -0.524966   1 C  s                 9      0.522550   1 C  pz        
    96      0.459008   9 H  s                 7     -0.450072   1 C  px        

 Vector   33  Occ=0.000000D+00  E= 1.140469D-01
              MO Center= -7.4D-02,  1.5D-01, -7.7D-02, r^2= 9.1D+00
   Bfn.  Coefficient  Atom+Function         Bfn.  Coefficient  Atom+Function  
  ----- ------------  ---------------      ----- ------------  ---------------
    63     -1.988951   5 C  s                48      1.871380   4 C  s         
   104     -1.022127  13 H  s               100     -0.823088  11 H  s         
    92     -0.734835   7 H  s               106      0.692703  14 H  s         
   112      0.671839  17 H  s               102      0.658950  12 H  s         
    39     -0.592163   3 C  pz              108      0.574212  15 H  s         

 Vector   34  Occ=0.000000D+00  E= 1.228950D-01
              MO Center= -2.5D-01, -6.6D-01,  2.6D-01, r^2= 9.4D+00
   Bfn.  Coefficient  Atom+Function         Bfn.  Coefficient  Atom+Function  
  ----- ------------  ---------------      ----- ------------  ---------------
    94     -1.316969   8 H  s                 3      1.279759   1 C  s         
   104     -1.072970  13 H  s                33     -0.984561   3 C  s         
    48      0.808399   4 C  s                18     -0.760728   2 N  s         
   106     -0.723318  14 H  s                54      0.617984   4 C  pz        
   108      0.589276  15 H  s               102      0.545507  12 H  s         

 Vector   35  Occ=0.000000D+00  E= 1.318316D-01
              MO Center= -2.6D-02, -6.7D-01,  1.8D-01, r^2= 1.1D+01
   Bfn.  Coefficient  Atom+Function         Bfn.  Coefficient  Atom+Function  
  ----- ------------  ---------------      ----- ------------  ---------------
    78      1.734165   6 C  s                48     -1.483707   4 C  s         
    96      1.223610   9 H  s                33     -0.984824   3 C  s         
   104      0.984450  13 H  s                18      0.764972   2 N  s         
   114     -0.702558  18 H  s                92     -0.658641   7 H  s         
     7     -0.626579   1 C  px              100      0.605443  11 H  s         

 Vector   36  Occ=0.000000D+00  E= 1.457275D-01
              MO Center= -1.3D-01,  1.2D+00, -3.7D-01, r^2= 8.7D+00
   Bfn.  Coefficient  Atom+Function         Bfn.  Coefficient  Atom+Function  
  ----- ------------  ---------------      ----- ------------  ---------------
   116      1.197970  19 H  s               114     -1.147873  18 H  s         
    33      1.103438   3 C  s               100     -0.929046  11 H  s         
   108      0.926714  15 H  s                84      0.751056   6 C  pz        
   110     -0.736513  16 H  s                92      0.717416   7 H  s         
    68     -0.648597   5 C  py               94     -0.529885   8 H  s         

 Vector   37  Occ=0.000000D+00  E= 1.474391D-01
              MO Center=  7.0D-01,  5.9D-01, -5.6D-01, r^2= 8.0D+00
   Bfn.  Coefficient  Atom+Function         Bfn.  Coefficient  Atom+Function  
  ----- ------------  ---------------      ----- ------------  ---------------
   106      1.432906  14 H  s               110     -1.098401  16 H  s         
    69      0.860364   5 C  pz              116     -0.735551  19 H  s         
    33      0.676384   3 C  s                92      0.673905   7 H  s         
   100     -0.651687  11 H  s               112      0.560408  17 H  s         
    84     -0.528144   6 C  pz               98      0.518766  10 H  s         

 Vector   38  Occ=0.000000D+00  E= 1.687777D-01
              MO Center= -8.1D-01,  2.6D-01,  4.2D-02, r^2= 8.2D+00
   Bfn.  Coefficient  Atom+Function         Bfn.  Coefficient  Atom+Function  
  ----- ------------  ---------------      ----- ------------  ---------------
   102      1.529454  12 H  s               112     -1.258966  17 H  s         
   100     -0.834187  11 H  s               110      0.773228  16 H  s         
    94     -0.724955   8 H  s               108     -0.724695  15 H  s         
    39     -0.696978   3 C  pz               82     -0.679353   6 C  px        
    33     -0.606273   3 C  s                92      0.598242   7 H  s         

 Vector   39  Occ=0.000000D+00  E= 1.846997D-01
              MO Center= -8.3D-02, -1.3D+00,  1.3D-01, r^2= 6.4D+00
   Bfn.  Coefficient  Atom+Function         Bfn.  Coefficient  Atom+Function  
  ----- ------------  ---------------      ----- ------------  ---------------
    18      1.399185   2 N  s                33     -1.302157   3 C  s         
     8     -1.240873   1 C  py                3     -0.810910   1 C  s         
    98      0.730555  10 H  s               104     -0.659802  13 H  s         
    24     -0.607877   2 N  pz              102      0.531748  12 H  s         
    22     -0.523457   2 N  px              100      0.503546  11 H  s         

 Vector   40  Occ=0.000000D+00  E= 1.972036D-01
              MO Center= -2.0D-01,  1.3D+00, -2.5D-01, r^2= 5.2D+00
   Bfn.  Coefficient  Atom+Function         Bfn.  Coefficient  Atom+Function  
  ----- ------------  ---------------      ----- ------------  ---------------
    48      4.137491   4 C  s                78     -2.380098   6 C  s         
    63     -1.625687   5 C  s                54     -1.397670   4 C  pz        
    67      1.260888   5 C  px               82     -1.259431   6 C  px        
    83      1.120663   6 C  py               53      1.096427   4 C  py        
    33     -0.955616   3 C  s                38     -0.787607   3 C  py        

 Vector   41  Occ=0.000000D+00  E= 2.050488D-01
              MO Center= -3.9D-02,  4.0D-01,  1.6D-02, r^2= 4.8D+00
   Bfn.  Coefficient  Atom+Function         Bfn.  Coefficient  Atom+Function  
  ----- ------------  ---------------      ----- ------------  ---------------
    53      2.045684   4 C  py               33      1.976381   3 C  s         
    48     -1.733715   4 C  s                38      1.427647   3 C  py        
    37      0.740167   3 C  px               68     -0.729676   5 C  py        
    54      0.712408   4 C  pz               63      0.643045   5 C  s         
    82     -0.613168   6 C  px               52     -0.567877   4 C  px        

 Vector   42  Occ=0.000000D+00  E= 2.103440D-01
              MO Center=  1.1D-01,  5.1D-01, -1.2D-01, r^2= 4.9D+00
   Bfn.  Coefficient  Atom+Function         Bfn.  Coefficient  Atom+Function  
  ----- ------------  ---------------      ----- ------------  ---------------
    52      2.038478   4 C  px               63     -1.667721   5 C  s         
    67      1.242592   5 C  px               38      1.110196   3 C  py        
    37     -0.933202   3 C  px               69     -0.813583   5 C  pz        
    48      0.784359   4 C  s                78      0.709471   6 C  s         
    18      0.674964   2 N  s                23      0.557187   2 N  py        

 Vector   43  Occ=0.000000D+00  E= 2.392121D-01
              MO Center= -1.1D-01, -1.4D-01,  6.0D-02, r^2= 5.6D+00
   Bfn.  Coefficient  Atom+Function         Bfn.  Coefficient  Atom+Function  
  ----- ------------  ---------------      ----- ------------  ---------------
    33      2.221895   3 C  s                48     -1.474600   4 C  s         
    37      1.077094   3 C  px               53      1.045396   4 C  py        
    23     -1.022387   2 N  py               52      0.979870   4 C  px        
    39      0.904537   3 C  pz               83     -0.771147   6 C  py        
   114      0.678944  18 H  s                 3     -0.558053   1 C  s         

 Vector   44  Occ=0.000000D+00  E= 3.795719D-01
              MO Center=  2.2D-01,  1.7D+00, -1.5D-01, r^2= 4.4D+00
   Bfn.  Coefficient  Atom+Function         Bfn.  Coefficient  Atom+Function  
  ----- ------------  ---------------      ----- ------------  ---------------
    78      1.001791   6 C  s                33     -0.858046   3 C  s         
    53     -0.814490   4 C  py               63      0.811601   5 C  s         
    82      0.602041   6 C  px              109      0.522693  16 H  s         
    68      0.519162   5 C  py              111      0.517232  17 H  s         
   112     -0.482428  17 H  s               110     -0.431128  16 H  s         

 Vector   45  Occ=0.000000D+00  E= 3.903119D-01
              MO Center=  4.1D-01,  5.1D-01, -7.3D-02, r^2= 5.5D+00
   Bfn.  Coefficient  Atom+Function         Bfn.  Coefficient  Atom+Function  
  ----- ------------  ---------------      ----- ------------  ---------------
    33      1.713334   3 C  s                48     -1.626262   4 C  s         
    18     -0.769347   2 N  s                37      0.713897   3 C  px        
     3      0.567853   1 C  s                53      0.554688   4 C  py        
   105     -0.554492  14 H  s                69     -0.539538   5 C  pz        
    78      0.473800   6 C  s                38      0.441744   3 C  py        

 Vector   46  Occ=0.000000D+00  E= 4.026983D-01
              MO Center=  8.9D-02,  5.1D-01, -2.1D-02, r^2= 6.2D+00
   Bfn.  Coefficient  Atom+Function         Bfn.  Coefficient  Atom+Function  
  ----- ------------  ---------------      ----- ------------  ---------------
    63      0.944397   5 C  s                67     -0.663641   5 C  px        
    18      0.457858   2 N  s                84     -0.437352   6 C  pz        
    78     -0.431626   6 C  s               115     -0.428995  19 H  s         
    38      0.421971   3 C  py               62     -0.410284   5 C  s         
    68     -0.387152   5 C  py               82     -0.365328   6 C  px        

 Vector   47  Occ=0.000000D+00  E= 4.088260D-01
              MO Center= -1.0D-01, -7.8D-01, -2.1D-02, r^2= 6.2D+00
   Bfn.  Coefficient  Atom+Function         Bfn.  Coefficient  Atom+Function  
  ----- ------------  ---------------      ----- ------------  ---------------
     3      1.438944   1 C  s                33     -0.744404   3 C  s         
    48     -0.655877   4 C  s                 8      0.606207   1 C  py        
    78      0.589556   6 C  s                 2     -0.554549   1 C  s         
    32      0.540105   3 C  s                83     -0.503118   6 C  py        
    18     -0.492600   2 N  s                63     -0.434253   5 C  s         

 Vector   48  Occ=0.000000D+00  E= 4.153448D-01
              MO Center= -1.4D-01, -3.5D-01, -6.5D-02, r^2= 6.2D+00
   Bfn.  Coefficient  Atom+Function         Bfn.  Coefficient  Atom+Function  
  ----- ------------  ---------------      ----- ------------  ---------------
    48      1.231309   4 C  s                33     -0.802385   3 C  s         
    63     -0.680521   5 C  s                 3     -0.585382   1 C  s         
    53     -0.572067   4 C  py               78     -0.561600   6 C  s         
    18      0.505779   2 N  s                95     -0.452797   9 H  s         
    99      0.453737  11 H  s                 7      0.438156   1 C  px        

 Vector   49  Occ=0.000000D+00  E= 4.462362D-01
              MO Center= -8.2D-02, -1.8D+00, -9.6D-02, r^2= 5.9D+00
   Bfn.  Coefficient  Atom+Function         Bfn.  Coefficient  Atom+Function  
  ----- ------------  ---------------      ----- ------------  ---------------
    48     -1.502123   4 C  s                33      1.448518   3 C  s         
     9     -0.915127   1 C  pz               93      0.682219   8 H  s         
     7      0.666613   1 C  px               91     -0.608753   7 H  s         
    53      0.565706   4 C  py               63      0.545199   5 C  s         
    38      0.516926   3 C  py               84     -0.466591   6 C  pz        

 Vector   50  Occ=0.000000D+00  E= 4.828121D-01
              MO Center= -2.7D-01, -2.5D-01, -8.8D-02, r^2= 6.5D+00
   Bfn.  Coefficient  Atom+Function         Bfn.  Coefficient  Atom+Function  
  ----- ------------  ---------------      ----- ------------  ---------------
    78      1.048489   6 C  s                33      0.943014   3 C  s         
    63     -0.813606   5 C  s                 3     -0.792937   1 C  s         
     7     -0.736759   1 C  px               83     -0.702081   6 C  py        
    52      0.640495   4 C  px               69     -0.594336   5 C  pz        
     9     -0.538908   1 C  pz               18      0.538809   2 N  s         

 Vector   51  Occ=0.000000D+00  E= 5.017975D-01
              MO Center= -5.5D-01, -2.3D-01,  5.3D-03, r^2= 7.2D+00
   Bfn.  Coefficient  Atom+Function         Bfn.  Coefficient  Atom+Function  
  ----- ------------  ---------------      ----- ------------  ---------------
    33      4.190006   3 C  s                48     -1.641067   4 C  s         
    18     -1.553856   2 N  s                53      1.433807   4 C  py        
    39      0.955170   3 C  pz               37      0.913881   3 C  px        
    84     -0.911478   6 C  pz                3      0.687385   1 C  s         
   100     -0.683284  11 H  s                32     -0.673905   3 C  s         

 Vector   52  Occ=0.000000D+00  E= 5.508981D-01
              MO Center=  8.3D-02,  4.9D-01,  1.0D-01, r^2= 5.9D+00
   Bfn.  Coefficient  Atom+Function         Bfn.  Coefficient  Atom+Function  
  ----- ------------  ---------------      ----- ------------  ---------------
    48      2.506210   4 C  s                33     -1.749960   3 C  s         
    63     -1.172175   5 C  s                69     -1.079875   5 C  pz        
    39     -0.941046   3 C  pz               37     -0.798644   3 C  px        
     3      0.610929   1 C  s                53     -0.609724   4 C  py        
     8      0.515908   1 C  py               47     -0.505054   4 C  s         

 Vector   53  Occ=0.000000D+00  E= 5.560703D-01
              MO Center=  6.6D-02,  4.6D-01, -4.8D-03, r^2= 4.8D+00
   Bfn.  Coefficient  Atom+Function         Bfn.  Coefficient  Atom+Function  
  ----- ------------  ---------------      ----- ------------  ---------------
    48      5.081899   4 C  s                33     -2.875419   3 C  s         
    78     -2.666796   6 C  s                63     -1.824518   5 C  s         
    54     -1.470272   4 C  pz               47     -0.969990   4 C  s         
    38     -0.878076   3 C  py               67      0.871354   5 C  px        
   100      0.828808  11 H  s                83      0.822579   6 C  py        

 Vector   54  Occ=0.000000D+00  E= 5.803585D-01
              MO Center= -9.7D-02,  1.1D-01,  7.2D-02, r^2= 7.1D+00
   Bfn.  Coefficient  Atom+Function         Bfn.  Coefficient  Atom+Function  
  ----- ------------  ---------------      ----- ------------  ---------------
    48      2.517445   4 C  s                63     -2.186892   5 C  s         
    33     -1.916134   3 C  s                78     -1.895398   6 C  s         
    54     -1.372181   4 C  pz                3     -1.111917   1 C  s         
   106      0.752544  14 H  s                69      0.726057   5 C  pz        
     9     -0.716499   1 C  pz               38     -0.671284   3 C  py        

 Vector   55  Occ=0.000000D+00  E= 6.076215D-01
              MO Center= -3.8D-02,  6.6D-01,  1.7D-01, r^2= 7.4D+00
   Bfn.  Coefficient  Atom+Function         Bfn.  Coefficient  Atom+Function  
  ----- ------------  ---------------      ----- ------------  ---------------
    78      2.116606   6 C  s                 3      1.600190   1 C  s         
    53     -1.393900   4 C  py               63      1.288758   5 C  s         
    84      0.936090   6 C  pz              114     -0.912916  18 H  s         
    54     -0.724798   4 C  pz               62     -0.693932   5 C  s         
    77     -0.687325   6 C  s                 2     -0.676737   1 C  s         

 Vector   56  Occ=0.000000D+00  E= 6.128478D-01
              MO Center= -4.2D-01,  5.4D-01,  1.1D-01, r^2= 5.5D+00
   Bfn.  Coefficient  Atom+Function         Bfn.  Coefficient  Atom+Function  
  ----- ------------  ---------------      ----- ------------  ---------------
    63      2.576335   5 C  s                33     -2.305722   3 C  s         
    48     -2.135613   4 C  s                52     -1.547126   4 C  px        
    78     -1.132450   6 C  s                67     -1.049576   5 C  px        
    53     -0.850463   4 C  py               32      0.788984   3 C  s         
     3     -0.771662   1 C  s               112      0.753759  17 H  s         

 Vector   57  Occ=0.000000D+00  E= 6.198804D-01
              MO Center= -2.3D-02,  4.8D-01, -2.1D-01, r^2= 9.3D+00
   Bfn.  Coefficient  Atom+Function         Bfn.  Coefficient  Atom+Function  
  ----- ------------  ---------------      ----- ------------  ---------------
    63      3.148205   5 C  s                 3     -2.325871   1 C  s         
    78      2.182319   6 C  s                33     -1.540062   3 C  s         
    52     -1.077609   4 C  px               77     -0.896818   6 C  s         
    53     -0.860849   4 C  py                2      0.835063   1 C  s         
   116     -0.778645  19 H  s               106     -0.770892  14 H  s         

 Vector   58  Occ=0.000000D+00  E= 6.324984D-01
              MO Center=  2.7D-01, -2.4D-01, -3.3D-02, r^2= 8.4D+00
   Bfn.  Coefficient  Atom+Function         Bfn.  Coefficient  Atom+Function  
  ----- ------------  ---------------      ----- ------------  ---------------
     3      2.750435   1 C  s                33     -1.751373   3 C  s         
    53     -1.334658   4 C  py               82      1.056025   6 C  px        
     2     -0.963032   1 C  s                92     -0.929057   7 H  s         
    96     -0.873076   9 H  s                52     -0.859688   4 C  px        
    39     -0.761591   3 C  pz               94     -0.735906   8 H  s         

 Vector   59  Occ=0.000000D+00  E= 6.370485D-01
              MO Center= -1.6D-01, -3.5D-01,  7.7D-02, r^2= 6.5D+00
   Bfn.  Coefficient  Atom+Function         Bfn.  Coefficient  Atom+Function  
  ----- ------------  ---------------      ----- ------------  ---------------
    48      3.306840   4 C  s                78     -2.458342   6 C  s         
     3      1.673351   1 C  s                33     -1.200899   3 C  s         
    52     -1.156565   4 C  px               63      1.095935   5 C  s         
   104     -1.094337  13 H  s               102      1.004049  12 H  s         
    92     -0.934135   7 H  s                39     -0.878774   3 C  pz        

 Vector   60  Occ=0.000000D+00  E= 6.492975D-01
              MO Center= -3.7D-01, -1.4D+00,  1.6D-02, r^2= 7.3D+00
   Bfn.  Coefficient  Atom+Function         Bfn.  Coefficient  Atom+Function  
  ----- ------------  ---------------      ----- ------------  ---------------
    94      1.563589   8 H  s                 7      1.384814   1 C  px        
    78      1.123796   6 C  s                63     -1.011287   5 C  s         
    48     -0.987305   4 C  s                96     -0.854649   9 H  s         
     4     -0.825372   1 C  px               52      0.697295   4 C  px        
   106      0.609157  14 H  s                53     -0.604241   4 C  py        

 Vector   61  Occ=0.000000D+00  E= 6.553183D-01
              MO Center=  1.8D-01,  3.3D-01,  2.4D-01, r^2= 7.2D+00
   Bfn.  Coefficient  Atom+Function         Bfn.  Coefficient  Atom+Function  
  ----- ------------  ---------------      ----- ------------  ---------------
    48      2.788561   4 C  s                63     -1.557936   5 C  s         
   104     -1.329419  13 H  s               108      1.073304  15 H  s         
    78     -0.959592   6 C  s                38     -0.786838   3 C  py        
     9      0.751854   1 C  pz               92      0.708176   7 H  s         
    96     -0.706587   9 H  s                54      0.650761   4 C  pz        

 Vector   62  Occ=0.000000D+00  E= 6.580042D-01
              MO Center= -2.1D-01, -7.1D-01, -7.8D-02, r^2= 9.1D+00
   Bfn.  Coefficient  Atom+Function         Bfn.  Coefficient  Atom+Function  
  ----- ------------  ---------------      ----- ------------  ---------------
    96      1.328085   9 H  s               112      1.090625  17 H  s         
    33      1.014796   3 C  s                 3     -0.827075   1 C  s         
     9     -0.810706   1 C  pz                8      0.803419   1 C  py        
    92     -0.738624   7 H  s                 7     -0.699982   1 C  px        
   108      0.630846  15 H  s                18     -0.616722   2 N  s         

 Vector   63  Occ=0.000000D+00  E= 6.657739D-01
              MO Center=  5.6D-02,  7.6D-01,  8.2D-02, r^2= 6.5D+00
   Bfn.  Coefficient  Atom+Function         Bfn.  Coefficient  Atom+Function  
  ----- ------------  ---------------      ----- ------------  ---------------
    52      1.210175   4 C  px               67      1.136758   5 C  px        
   110     -1.008306  16 H  s                33     -0.953284   3 C  s         
   102      0.727377  12 H  s               108     -0.725167  15 H  s         
    94     -0.716835   8 H  s               112      0.674495  17 H  s         
    84     -0.614049   6 C  pz              116     -0.603736  19 H  s         

 Vector   64  Occ=0.000000D+00  E= 6.731831D-01
              MO Center= -2.1D-01,  1.2D+00, -3.7D-01, r^2= 7.3D+00
   Bfn.  Coefficient  Atom+Function         Bfn.  Coefficient  Atom+Function  
  ----- ------------  ---------------      ----- ------------  ---------------
    78      2.537962   6 C  s                63     -1.759630   5 C  s         
   116     -1.419404  19 H  s               106      1.187409  14 H  s         
     3      1.140410   1 C  s               114     -0.996542  18 H  s         
    83      0.954641   6 C  py               77     -0.890000   6 C  s         
    33     -0.850362   3 C  s               102      0.752847  12 H  s         

 Vector   65  Occ=0.000000D+00  E= 6.759532D-01
              MO Center= -4.4D-01, -2.7D-01, -5.3D-01, r^2= 7.6D+00
   Bfn.  Coefficient  Atom+Function         Bfn.  Coefficient  Atom+Function  
  ----- ------------  ---------------      ----- ------------  ---------------
    33      2.235968   3 C  s               100     -1.479989  11 H  s         
    78     -1.353405   6 C  s                92      1.156358   7 H  s         
    48     -0.972225   4 C  s               116      0.970444  19 H  s         
     9      0.850241   1 C  pz              112      0.795558  17 H  s         
    39     -0.763605   3 C  pz               82      0.666906   6 C  px        

 Vector   66  Occ=0.000000D+00  E= 6.806283D-01
              MO Center=  5.3D-01, -4.5D-01, -1.4D-01, r^2= 6.8D+00
   Bfn.  Coefficient  Atom+Function         Bfn.  Coefficient  Atom+Function  
  ----- ------------  ---------------      ----- ------------  ---------------
     3      2.145219   1 C  s                63      1.908807   5 C  s         
   110     -1.326621  16 H  s                33     -0.918456   3 C  s         
    38     -0.843126   3 C  py               54     -0.818581   4 C  pz        
    68     -0.777735   5 C  py              106     -0.774929  14 H  s         
   100      0.721117  11 H  s                92     -0.673697   7 H  s         

 Vector   67  Occ=0.000000D+00  E= 6.915030D-01
              MO Center=  1.9D-01,  4.0D-01,  7.0D-02, r^2= 6.0D+00
   Bfn.  Coefficient  Atom+Function         Bfn.  Coefficient  Atom+Function  
  ----- ------------  ---------------      ----- ------------  ---------------
    78      1.271231   6 C  s               106      0.902583  14 H  s         
    54      0.887681   4 C  pz              104     -0.741569  13 H  s         
    18      0.706973   2 N  s                98     -0.692796  10 H  s         
    48      0.688932   4 C  s               114     -0.580860  18 H  s         
    84      0.539067   6 C  pz               63     -0.534546   5 C  s         

 Vector   68  Occ=0.000000D+00  E= 7.043567D-01
              MO Center=  1.5D-01,  2.6D-01,  1.5D-01, r^2= 7.5D+00
   Bfn.  Coefficient  Atom+Function         Bfn.  Coefficient  Atom+Function  
  ----- ------------  ---------------      ----- ------------  ---------------
    48      1.797218   4 C  s                33     -1.019143   3 C  s         
   114     -0.886567  18 H  s                83      0.845484   6 C  py        
    38      0.832619   3 C  py              104     -0.703386  13 H  s         
    53      0.656476   4 C  py               47     -0.592460   4 C  s         
    98      0.594763  10 H  s                95      0.585979   9 H  s         

 Vector   69  Occ=0.000000D+00  E= 7.133709D-01
              MO Center=  2.1D-02,  9.3D-01,  2.7D-02, r^2= 6.3D+00
   Bfn.  Coefficient  Atom+Function         Bfn.  Coefficient  Atom+Function  
  ----- ------------  ---------------      ----- ------------  ---------------
    63      1.594680   5 C  s               108     -1.159902  15 H  s         
    33      1.131486   3 C  s                68      0.783878   5 C  py        
   102     -0.756990  12 H  s                48      0.706380   4 C  s         
    69      0.701904   5 C  pz              114      0.692249  18 H  s         
    78     -0.676520   6 C  s                84     -0.632380   6 C  pz        

 Vector   70  Occ=0.000000D+00  E= 7.141148D-01
              MO Center=  2.5D-01,  1.1D+00, -1.3D-01, r^2= 5.4D+00
   Bfn.  Coefficient  Atom+Function         Bfn.  Coefficient  Atom+Function  
  ----- ------------  ---------------      ----- ------------  ---------------
    63     -1.515032   5 C  s                52      1.501558   4 C  px        
   110      1.361699  16 H  s                69     -1.126932   5 C  pz        
    39      1.109837   3 C  pz              100      1.109826  11 H  s         
    68      1.017533   5 C  py               78      0.890202   6 C  s         
    48     -0.787137   4 C  s                 3      0.691691   1 C  s         

 Vector   71  Occ=0.000000D+00  E= 7.431035D-01
              MO Center=  6.9D-03,  2.0D-01,  5.4D-02, r^2= 5.5D+00
   Bfn.  Coefficient  Atom+Function         Bfn.  Coefficient  Atom+Function  
  ----- ------------  ---------------      ----- ------------  ---------------
    48      1.800732   4 C  s                54     -1.627617   4 C  pz        
    63     -1.517047   5 C  s                33     -1.191416   3 C  s         
   102      0.960865  12 H  s                78      0.856536   6 C  s         
    53     -0.786706   4 C  py               68      0.768425   5 C  py        
    98     -0.753940  10 H  s                52      0.737856   4 C  px        

 Vector   72  Occ=0.000000D+00  E= 7.738255D-01
              MO Center= -1.4D-01,  5.0D-01, -1.5D-01, r^2= 5.5D+00
   Bfn.  Coefficient  Atom+Function         Bfn.  Coefficient  Atom+Function  
  ----- ------------  ---------------      ----- ------------  ---------------
    48     -1.797809   4 C  s                37      1.775032   3 C  px        
    63      1.429096   5 C  s                78      1.331859   6 C  s         
    68      1.311692   5 C  py               83     -1.253671   6 C  py        
    18     -1.197541   2 N  s               102      1.105073  12 H  s         
    54      1.062909   4 C  pz              112     -1.058981  17 H  s         

 Vector   73  Occ=0.000000D+00  E= 8.399773D-01
              MO Center=  5.0D-01, -1.4D+00,  2.1D-01, r^2= 3.2D+00
   Bfn.  Coefficient  Atom+Function         Bfn.  Coefficient  Atom+Function  
  ----- ------------  ---------------      ----- ------------  ---------------
    18      1.635172   2 N  s                48     -1.154653   4 C  s         
    22      0.953692   2 N  px                7     -0.848823   1 C  px        
    39      0.755439   3 C  pz               98     -0.735904  10 H  s         
    17     -0.684402   2 N  s                19      0.669255   2 N  px        
    23     -0.638643   2 N  py               38      0.627409   3 C  py        

 Vector   74  Occ=0.000000D+00  E= 9.331018D-01
              MO Center= -4.5D-01, -3.3D-02, -6.3D-02, r^2= 6.0D+00
   Bfn.  Coefficient  Atom+Function         Bfn.  Coefficient  Atom+Function  
[...]
              MO Center= -8.5D-03, -1.7D+00, -1.1D-01, r^2= 3.9D+00
   Bfn.  Coefficient  Atom+Function         Bfn.  Coefficient  Atom+Function  
  ----- ------------  ---------------      ----- ------------  ---------------
    11      0.717544   1 C  dxy              12     -0.686638   1 C  dxz       
    18      0.609979   2 N  s                15     -0.595428   1 C  dzz       
    10      0.582963   1 C  dxx              93     -0.553185   8 H  s         
    91      0.435661   7 H  s                42     -0.411574   3 C  dxz       
     7     -0.384838   1 C  px               48      0.342398   4 C  s         

 Vector   97  Occ=0.000000D+00  E= 2.048085D+00
              MO Center=  3.2D-02,  1.4D-01, -1.6D-01, r^2= 3.4D+00
   Bfn.  Coefficient  Atom+Function         Bfn.  Coefficient  Atom+Function  
  ----- ------------  ---------------      ----- ------------  ---------------
    74     -0.648483   5 C  dyz              40      0.639270   3 C  dxx       
    45     -0.615706   3 C  dzz              42     -0.558444   3 C  dxz       
    99      0.530123  11 H  s               101     -0.532379  12 H  s         
   107      0.470312  15 H  s                37     -0.465375   3 C  px        
    68     -0.438017   5 C  py               71     -0.417321   5 C  dxy       

 Vector   98  Occ=0.000000D+00  E= 2.049669D+00
              MO Center= -3.6D-01, -6.0D-01, -9.6D-02, r^2= 6.1D+00
   Bfn.  Coefficient  Atom+Function         Bfn.  Coefficient  Atom+Function  
  ----- ------------  ---------------      ----- ------------  ---------------
    33      1.153378   3 C  s                48     -1.121992   4 C  s         
    18     -0.930405   2 N  s                11      0.735853   1 C  dxy       
    86     -0.688860   6 C  dxy              14      0.603039   1 C  dyz       
    83     -0.522212   6 C  py               95      0.497085   9 H  s         
     8      0.468833   1 C  py               89     -0.467308   6 C  dyz       

 Vector   99  Occ=0.000000D+00  E= 2.071595D+00
              MO Center=  2.4D-01,  1.7D+00, -1.3D-01, r^2= 2.9D+00
   Bfn.  Coefficient  Atom+Function         Bfn.  Coefficient  Atom+Function  
  ----- ------------  ---------------      ----- ------------  ---------------
    71      1.016641   5 C  dxy              87     -0.798351   6 C  dxz       
    74      0.649937   5 C  dyz             109      0.631452  16 H  s         
    68      0.598773   5 C  py               85      0.599221   6 C  dxx       
   111     -0.587083  17 H  s                82     -0.461715   6 C  px        
    90     -0.390576   6 C  dzz              75      0.386753   5 C  dzz       

 Vector  100  Occ=0.000000D+00  E= 2.073047D+00
              MO Center=  5.3D-02,  1.3D+00, -1.7D-01, r^2= 3.6D+00
   Bfn.  Coefficient  Atom+Function         Bfn.  Coefficient  Atom+Function  
  ----- ------------  ---------------      ----- ------------  ---------------
    75      0.660202   5 C  dzz              89     -0.627322   6 C  dyz       
    90      0.609028   6 C  dzz              54     -0.482319   4 C  pz        
    88     -0.474993   6 C  dyy             115     -0.438412  19 H  s         
   105     -0.435447  14 H  s               113      0.360955  18 H  s         
    70     -0.336736   5 C  dxx              45      0.330956   3 C  dzz       

 Vector  101  Occ=0.000000D+00  E= 2.281874D+00
              MO Center=  1.5D-01,  4.4D-01,  5.9D-02, r^2= 4.0D+00
   Bfn.  Coefficient  Atom+Function         Bfn.  Coefficient  Atom+Function  
  ----- ------------  ---------------      ----- ------------  ---------------
    27      0.789280   2 N  dxz              57     -0.779619   4 C  dxz       
    18      0.593224   2 N  s                38      0.546430   3 C  py        
    88      0.487005   6 C  dyy              75      0.483823   5 C  dzz       
    72     -0.473345   5 C  dxz              52      0.456851   4 C  px        
    48     -0.418314   4 C  s                11      0.384371   1 C  dxy       

 Vector  102  Occ=0.000000D+00  E= 2.341847D+00
              MO Center=  6.5D-02,  8.1D-01,  6.9D-02, r^2= 2.8D+00
   Bfn.  Coefficient  Atom+Function         Bfn.  Coefficient  Atom+Function  
  ----- ------------  ---------------      ----- ------------  ---------------
    48      1.039861   4 C  s                59      0.961433   4 C  dyz       
    71     -0.914843   5 C  dxy              33     -0.799216   3 C  s         
    53     -0.672688   4 C  py               41     -0.579408   3 C  dxy       
    38     -0.514653   3 C  py               87     -0.500369   6 C  dxz       
    60     -0.477040   4 C  dzz              57     -0.438190   4 C  dxz       

 Vector  103  Occ=0.000000D+00  E= 2.352229D+00
              MO Center=  1.3D-01,  8.9D-01,  9.6D-02, r^2= 2.8D+00
   Bfn.  Coefficient  Atom+Function         Bfn.  Coefficient  Atom+Function  
  ----- ------------  ---------------      ----- ------------  ---------------
    48      1.770358   4 C  s                78     -0.797067   6 C  s         
    63     -0.789507   5 C  s                60     -0.683331   4 C  dzz       
    59     -0.577343   4 C  dyz              54     -0.573070   4 C  pz        
    86      0.539520   6 C  dxy              70     -0.483657   5 C  dxx       
    67      0.478003   5 C  px               72      0.473674   5 C  dxz       

 Vector  104  Occ=0.000000D+00  E= 2.464283D+00
              MO Center= -7.0D-02, -3.2D-01,  1.3D-01, r^2= 3.8D+00
   Bfn.  Coefficient  Atom+Function         Bfn.  Coefficient  Atom+Function  
  ----- ------------  ---------------      ----- ------------  ---------------
    78     -0.927258   6 C  s                29      0.910528   2 N  dyz       
    18      0.670406   2 N  s                56     -0.668970   4 C  dxy       
    86      0.632113   6 C  dxy              27      0.621406   2 N  dxz       
    53      0.607647   4 C  py               48      0.530204   4 C  s         
    83      0.470956   6 C  py               55      0.405219   4 C  dxx       

 Vector  105  Occ=0.000000D+00  E= 2.481670D+00
              MO Center=  1.1D-01, -9.3D-01,  1.7D-01, r^2= 1.9D+00
   Bfn.  Coefficient  Atom+Function         Bfn.  Coefficient  Atom+Function  
  ----- ------------  ---------------      ----- ------------  ---------------
    18      1.336531   2 N  s                33     -1.233135   3 C  s         
    27      0.815244   2 N  dxz              63      0.738800   5 C  s         
    29     -0.711308   2 N  dyz              52     -0.697421   4 C  px        
    78     -0.698021   6 C  s                44     -0.690243   3 C  dyz       
    48      0.587412   4 C  s                25     -0.579967   2 N  dxx       

 Vector  106  Occ=0.000000D+00  E= 2.504409D+00
              MO Center=  1.0D-01, -7.7D-01,  1.7D-01, r^2= 3.0D+00
   Bfn.  Coefficient  Atom+Function         Bfn.  Coefficient  Atom+Function  
  ----- ------------  ---------------      ----- ------------  ---------------
    18      0.804159   2 N  s                56      0.763370   4 C  dxy       
    26     -0.737586   2 N  dxy              33     -0.712282   3 C  s         
    29      0.686100   2 N  dyz              11     -0.599829   1 C  dxy       
    25     -0.524562   2 N  dxx              30      0.441771   2 N  dzz       
    42     -0.412159   3 C  dxz              71      0.400590   5 C  dxy       

 Vector  107  Occ=0.000000D+00  E= 2.589013D+00
              MO Center=  2.3D-01,  1.0D+00,  9.9D-02, r^2= 2.3D+00
   Bfn.  Coefficient  Atom+Function         Bfn.  Coefficient  Atom+Function  
  ----- ------------  ---------------      ----- ------------  ---------------
    52      1.327489   4 C  px               63     -1.320047   5 C  s         
    78      1.070921   6 C  s                33      0.941612   3 C  s         
    57     -0.883849   4 C  dxz              67      0.775942   5 C  px        
    56      0.751232   4 C  dxy              72      0.733548   5 C  dxz       
    58     -0.706154   4 C  dyy              86     -0.691173   6 C  dxy       

 Vector  108  Occ=0.000000D+00  E= 2.669305D+00
              MO Center= -4.5D-02, -5.2D-01,  1.5D-01, r^2= 2.6D+00
   Bfn.  Coefficient  Atom+Function         Bfn.  Coefficient  Atom+Function  
  ----- ------------  ---------------      ----- ------------  ---------------
    33      1.846038   3 C  s                18     -1.262076   2 N  s         
    53      0.937305   4 C  py               56     -0.932126   4 C  dxy       
    48     -0.835908   4 C  s                24      0.785475   2 N  pz        
    27     -0.755386   2 N  dxz               3      0.668272   1 C  s         
    43      0.657918   3 C  dyy              30      0.618601   2 N  dzz       

 Vector  109  Occ=0.000000D+00  E= 2.832619D+00
              MO Center=  8.0D-02, -1.1D+00,  1.7D-01, r^2= 2.1D+00
   Bfn.  Coefficient  Atom+Function         Bfn.  Coefficient  Atom+Function  
  ----- ------------  ---------------      ----- ------------  ---------------
    18      1.575747   2 N  s                28      0.926899   2 N  dyy       
    56     -0.668971   4 C  dxy              78     -0.662341   6 C  s         
    30     -0.647714   2 N  dzz              41      0.634196   3 C  dxy       
    11     -0.614721   1 C  dxy              38      0.588669   3 C  py        
     3     -0.510315   1 C  s                37     -0.467573   3 C  px        

 Vector  110  Occ=0.000000D+00  E= 2.985777D+00
              MO Center=  7.8D-02, -1.2D+00,  1.5D-01, r^2= 1.7D+00
   Bfn.  Coefficient  Atom+Function         Bfn.  Coefficient  Atom+Function  
  ----- ------------  ---------------      ----- ------------  ---------------
    26     -1.568648   2 N  dxy              23      1.487665   2 N  py        
     3      1.078024   1 C  s                33     -1.062077   3 C  s         
    41      1.017409   3 C  dxy              29     -0.973877   2 N  dyz       
    38      0.882249   3 C  py                8      0.622613   1 C  py        
    78     -0.616490   6 C  s                44      0.510320   3 C  dyz       

 Vector  111  Occ=0.000000D+00  E= 4.822334D+00
              MO Center=  2.9D-02,  1.2D+00,  2.5D-02, r^2= 2.0D+00
   Bfn.  Coefficient  Atom+Function         Bfn.  Coefficient  Atom+Function  
  ----- ------------  ---------------      ----- ------------  ---------------
    47      2.291342   4 C  s                62      2.119384   5 C  s         
    77      2.121147   6 C  s                32      1.558512   3 C  s         
    60     -1.108545   4 C  dzz              58     -1.041825   4 C  dyy       
    55     -1.013904   4 C  dxx              73     -0.943947   5 C  dyy       
    90     -0.938990   6 C  dzz              75     -0.929527   5 C  dzz       

 Vector  112  Occ=0.000000D+00  E= 4.929640D+00
              MO Center= -7.5D-02, -2.6D+00, -1.3D-01, r^2= 1.1D+00
   Bfn.  Coefficient  Atom+Function         Bfn.  Coefficient  Atom+Function  
  ----- ------------  ---------------      ----- ------------  ---------------
     2      4.069881   1 C  s                13     -1.861048   1 C  dyy       
    10     -1.770786   1 C  dxx              15     -1.772475   1 C  dzz       
     1     -0.928495   1 C  s                62     -0.704429   5 C  s         
    18      0.601359   2 N  s                17      0.445992   2 N  s         
    32      0.385564   3 C  s                33     -0.382664   3 C  s         

 Vector  113  Occ=0.000000D+00  E= 4.951879D+00
              MO Center= -2.3D-02,  1.8D+00, -1.2D-01, r^2= 2.3D+00
   Bfn.  Coefficient  Atom+Function         Bfn.  Coefficient  Atom+Function  
  ----- ------------  ---------------      ----- ------------  ---------------
    77      3.191689   6 C  s                62     -2.657268   5 C  s         
    88     -1.447871   6 C  dyy              85     -1.429530   6 C  dxx       
    90     -1.403702   6 C  dzz              70      1.219351   5 C  dxx       
    75      1.175153   5 C  dzz              73      1.168307   5 C  dyy       
    76     -0.732838   6 C  s                61      0.610387   5 C  s         

 Vector  114  Occ=0.000000D+00  E= 4.986512D+00
              MO Center= -1.1D-01,  1.3D-01, -1.4D-01, r^2= 2.3D+00
   Bfn.  Coefficient  Atom+Function         Bfn.  Coefficient  Atom+Function  
  ----- ------------  ---------------      ----- ------------  ---------------
    32      3.370799   3 C  s                62     -1.974374   5 C  s         
    43     -1.594050   3 C  dyy              40     -1.517517   3 C  dxx       
    45     -1.498406   3 C  dzz              77     -1.065091   6 C  s         
    70      0.928320   5 C  dxx              75      0.872303   5 C  dzz       
    73      0.861076   5 C  dyy              31     -0.779447   3 C  s         

 Vector  115  Occ=0.000000D+00  E= 5.197087D+00
              MO Center= -4.0D-02,  9.8D-01,  1.7D-01, r^2= 1.4D+00
   Bfn.  Coefficient  Atom+Function         Bfn.  Coefficient  Atom+Function  
  ----- ------------  ---------------      ----- ------------  ---------------
    47      3.436504   4 C  s                32     -1.653103   3 C  s         
    55     -1.648772   4 C  dxx              58     -1.654508   4 C  dyy       
    60     -1.473395   4 C  dzz              77     -1.450619   6 C  s         
    62     -1.400300   5 C  s                43      0.850735   3 C  dyy       
    46     -0.773704   4 C  s                70      0.733853   5 C  dxx       

 Vector  116  Occ=0.000000D+00  E= 5.589682D+00
              MO Center=  2.8D-01, -1.4D+00,  2.7D-01, r^2= 7.2D-01
   Bfn.  Coefficient  Atom+Function         Bfn.  Coefficient  Atom+Function  
  ----- ------------  ---------------      ----- ------------  ---------------
    17      2.957085   2 N  s                28     -1.741008   2 N  dyy       
    18      1.671976   2 N  s                25     -1.639986   2 N  dxx       
    30     -1.587346   2 N  dzz              33     -1.063160   3 C  s         
    16      0.825371   2 N  s                32     -0.827097   3 C  s         
     2     -0.779108   1 C  s                 3     -0.606514   1 C  s         


 center of mass
 --------------
 x =   0.01074211 y =  -0.01482278 z =   0.01871923

 moments of inertia (a.u.)
 ------------------
        1007.661334936770          10.040942920248           4.458863995790
          10.040942920248         266.331636797521           3.540066817076
           4.458863995790           3.540066817076        1173.934493560981

     Multipole analysis of the density
     ---------------------------------

     L   x y z        total         alpha         beta         nuclear
     -   - - -        -----         -----         ----         -------
     0   0 0 0     -0.000000    -25.000000    -25.000000     50.000000

     1   1 0 0     -0.342392      0.014877      0.014877     -0.372145
     1   0 1 0     -0.106813     -0.261445     -0.261445      0.416077
     1   0 0 1      0.364477      0.064115      0.064115      0.236247

     2   2 0 0    -32.225778    -87.838151    -87.838151    143.450524
     2   1 1 0      0.435606      1.961339      1.961339     -3.487072
     2   1 0 1      0.477465      1.487541      1.487541     -2.497618
     2   0 2 0    -29.451597   -306.025650   -306.025650    582.599703
     2   0 1 1     -0.682318      0.627043      0.627043     -1.936405
     2   0 0 2    -28.889914    -36.191505    -36.191505     43.493096


 Parallel integral file used     489 records with       0 large values


 Task  times  cpu:       15.9s     wall:       15.9s


                                NWChem Input Module
                                -------------------


 Summary of allocated global arrays
-----------------------------------
  No active global arrays


MA_summarize_allocated_blocks: starting scan ...
MA_summarize_allocated_blocks: scan completed: 0 heap blocks, 0 stack blocks
MA usage statistics:

	allocation statistics:
					      heap	     stack
					      ----	     -----
	current number of blocks	         0	         0
	maximum number of blocks	        25	        61
	current total bytes		         0	         0
	maximum total bytes		 201595096	  84329384
	maximum total K-bytes		    201596	     84330
	maximum total M-bytes		       202	        85


                                     CITATION
                                     --------
                Please cite the following reference when publishing
                           results obtained with NWChem:

          E. Apra, E. J. Bylaska, W. A. de Jong, N. Govind, K. Kowalski,
       T. P. Straatsma, M. Valiev, H. J. J. van Dam, Y. Alexeev, J. Anchell,
       V. Anisimov, F. W. Aquino, R. Atta-Fynn, J. Autschbach, N. P. Bauman,
     J. C. Becca, D. E. Bernholdt, K. Bhaskaran-Nair, S. Bogatko, P. Borowski,
         J. Boschen, J. Brabec, A. Bruner, E. Cauet, Y. Chen, G. N. Chuev,
      C. J. Cramer, J. Daily, M. J. O. Deegan, T. H. Dunning Jr., M. Dupuis,
   K. G. Dyall, G. I. Fann, S. A. Fischer, A. Fonari, H. Fruchtl, L. Gagliardi,
      J. Garza, N. Gawande, S. Ghosh, K. Glaesemann, A. W. Gotz, J. Hammond,
       V. Helms, E. D. Hermes, K. Hirao, S. Hirata, M. Jacquelin, L. Jensen,
   B. G. Johnson, H. Jonsson, R. A. Kendall, M. Klemm, R. Kobayashi, V. Konkov,
      S. Krishnamoorthy, M. Krishnan, Z. Lin, R. D. Lins, R. J. Littlefield,
      A. J. Logsdail, K. Lopata, W. Ma, A. V. Marenich, J. Martin del Campo,
   D. Mejia-Rodriguez, J. E. Moore, J. M. Mullin, T. Nakajima, D. R. Nascimento,
    J. A. Nichols, P. J. Nichols, J. Nieplocha, A. Otero-de-la-Roza, B. Palmer,
    A. Panyala, T. Pirojsirikul, B. Peng, R. Peverati, J. Pittner, L. Pollack,
   R. M. Richard, P. Sadayappan, G. C. Schatz, W. A. Shelton, D. W. Silverstein,
   D. M. A. Smith, T. A. Soares, D. Song, M. Swart, H. L. Taylor, G. S. Thomas,
            V. Tipparaju, D. G. Truhlar, K. Tsemekhman, T. Van Voorhis,
      A. Vazquez-Mayagoitia, P. Verma, O. Villa, A. Vishnu, K. D. Vogiatzis,
        D. Wang, J. H. Weare, M. J. Williamson, T. L. Windus, K. Wolinski,
        A. T. Wong, Q. Wu, C. Yang, Q. Yu, M. Zacharias, Z. Zhang, Y. Zhao,
                                and R. J. Harrison
                        "NWChem: Past, present, and future
                         J. Chem. Phys. 152, 184102 (2020)
                               doi:10.1063/5.0004997

                                      AUTHORS
                                      -------
  E. Apra, E. J. Bylaska, N. Govind, K. Kowalski, M. Valiev, D. Mejia-Rodriguez,
       A. Kunitsa, N. P. Bauman, A. Panyala, W. A. de Jong, T. P. Straatsma,
   H. J. J. van Dam, D. Wang, T. L. Windus, J. Hammond, J. Autschbach, A. Woods,
    K. Bhaskaran-Nair, J. Brabec, K. Lopata, S. A. Fischer, S. Krishnamoorthy,
     M. Jacquelin, W. Ma, M. Klemm, O. Villa, Y. Chen, V. Anisimov, F. Aquino,
     S. Hirata, M. T. Hackler, E. Hermes, L. Jensen, J. E. Moore, J. C. Becca,
      V. Konjkov, T. Risthaus, M. Malagoli, A. Marenich, A. Otero-de-la-Roza,
        J. Mullin, P. Nichols, R. Peverati, J. Pittner, Y. Zhao, P.-D. Fan,
        A. Fonari, M. J. Williamson, R. J. Harrison, J. R. Rehr, M. Dupuis,
     D. Silverstein, D. M. A. Smith, J. Nieplocha, V. Tipparaju, M. Krishnan,
     B. E. Van Kuiken, A. Vazquez-Mayagoitia, M. Swart, Q. Wu, T. Van Voorhis,
     A. A. Auer, M. Nooijen, L. D. Crosby, E. Brown, G. Cisneros, G. I. Fann,
   H. Fruchtl, J. Garza, K. Hirao, R. A. Kendall, J. A. Nichols, K. Tsemekhman,
    K. Wolinski, J. Anchell, D. E. Bernholdt, P. Borowski, T. Clark, D. Clerc,
   H. Dachsel, M. J. O. Deegan, K. Dyall, D. Elwood, E. Glendening, M. Gutowski,
   A. C. Hess, J. Jaffe, B. G. Johnson, J. Ju, R. Kobayashi, R. Kutteh, Z. Lin,
   R. Littlefield, X. Long, B. Meng, T. Nakajima, S. Niu, L. Pollack, M. Rosing,
   K. Glaesemann, G. Sandrone, M. Stave, H. Taylor, G. Thomas, J. H. van Lenthe,
                               A. T. Wong, Z. Zhang.

 Total times  cpu:      409.8s     wall:      409.8s
