 argument  1 = prod_4.nw
  NWChem w/ OpenMP: maximum threads =    1
                                         
                                         


             Northwest Computational Chemistry Package (NWChem) 7.2.3
             --------------------------------------------------------


                    Environmental Molecular Sciences Laboratory
                       Pacific Northwest National Laboratory
                                Richland, WA 99352

                              Copyright (c) 1994-2022
                       Pacific Northwest National Laboratory
                            Battelle Memorial Institute

             NWChem is an open-source computational chemistry package
                        distributed under the terms of the
                      Educational Community License (ECL) 2.0
             A copy of the license is included with this distribution
                              in the LICENSE.TXT file

                                  ACKNOWLEDGMENT
                                  --------------

            This software and its documentation were developed at the
            EMSL at Pacific Northwest National Laboratory, a multiprogram
            national laboratory, operated for the U.S. Department of Energy
            by Battelle under Contract Number DE-AC05-76RL01830. Support
            for this work was provided by the Department of Energy Office
            of Biological and Environmental Research, Office of Basic
            Energy Sciences, and the Office of Advanced Scientific Computing.


           Job information
           ---------------

    hostname        = aed377b145ed
    program         = nwchem
    date            = Fri Sep 12 17:00:42 2025

    compiled        = Fri_Jul_11_19:03:44_2025
    source          = /opt/nwchem
    nwchem branch   = 7.2.3
    nwchem revision = N/A
    ga revision     = 5.9.2
    use scalapack   = T
    input           = prod_4.nw
    prefix          = EMPTY.
    data base       = /data/EMPTY.db
    status          = startup
    nproc           =        2
    time left       =     -1s



           Memory information
           ------------------

    heap     =     16777216 doubles =      128.0 Mbytes
    stack    =     16777213 doubles =      128.0 Mbytes
    global   =     33554432 doubles =      256.0 Mbytes (distinct from heap & stack)
    total    =     67108861 doubles =      512.0 Mbytes
    verify   = yes
    hardfail = no 


           Directory information
           ---------------------

  0 permanent = /data
  0 scratch   = /data




                                NWChem Input Module
                                -------------------


                                   prod_4_redox
                                   ------------

 Scaling coordinates for geometry "geometry" by  1.889725989
 (inverse scale =  0.529177249)

 C1  symmetry detected

          ------
          auto-z
          ------
  no constraints, skipping    0.0000000000000000     
  no constraints, skipping    0.0000000000000000     


                             Geometry "geometry" -> ""
                             -------------------------

 Output coordinates in angstroms (scale by  1.889725989 to convert to a.u.)

  No.       Tag          Charge          X              Y              Z
 ---- ---------------- ---------- -------------- -------------- --------------
    1 C                    6.0000    -0.16849766    -2.71643333    -0.17361630
    2 N                    7.0000     0.35624530    -1.43474078     0.28126639
    3 C                    6.0000    -0.51328289    -0.33362593    -0.14027755
    4 C                    6.0000     0.00624460     1.03311897     0.34787799
    5 C                    6.0000     1.39586841     1.36246598    -0.20354224
    6 C                    6.0000    -0.97956755     2.13270767    -0.05752420
    7 H                    1.0000    -0.25969448    -2.74432855    -1.26432046
    8 H                    1.0000    -1.14546059    -2.93092150     0.27200541
    9 H                    1.0000     0.51784586    -3.51706943     0.11866062
   10 H                    1.0000     0.42972293    -1.44147803     1.29758106
   11 H                    1.0000    -0.58833653    -0.32105680    -1.23448705
   12 H                    1.0000    -1.52281535    -0.49247865     0.25964153
   13 H                    1.0000     0.06635602     1.02005983     1.44437691
   14 H                    1.0000     1.39646079     1.37031056    -1.29886328
   15 H                    1.0000     1.72391297     2.35014535     0.14010526
   16 H                    1.0000     2.14160443     0.63485469     0.13253822
   17 H                    1.0000    -1.97417556     1.93606259     0.35679919
   18 H                    1.0000    -0.65044145     3.10839397     0.31615596
   19 H                    1.0000    -1.07328557     2.20129130    -1.14656425

      Atomic Mass 
      ----------- 

      C                 12.000000
      N                 14.003070
      H                  1.007825


 Effective nuclear repulsion energy (a.u.)     256.9318546277

            Nuclear Dipole moment (a.u.) 
            ----------------------------
        X                 Y               Z
 ---------------- ---------------- ----------------
     0.0000000000    -0.0000000000     0.0000000000



                                Z-matrix (autoz)
                                -------- 

 Units are Angstrom for bonds and degrees for angles

      Type          Name      I     J     K     L     M      Value
      ----------- --------  ----- ----- ----- ----- ----- ----------
    1 Stretch                  1     2                       1.45774
    2 Stretch                  1     7                       1.09487
    3 Stretch                  1     8                       1.09501
    4 Stretch                  1     9                       1.09431
    5 Stretch                  2     3                       1.46500
    6 Stretch                  2    10                       1.01899
    7 Stretch                  3     4                       1.54149
    8 Stretch                  3    11                       1.09685
    9 Stretch                  3    12                       1.09742
   10 Stretch                  4     5                       1.53088
   11 Stretch                  4     6                       1.53143
   12 Stretch                  4    13                       1.09822
   13 Stretch                  5    14                       1.09535
   14 Stretch                  5    15                       1.09600
   15 Stretch                  5    16                       1.09476
   16 Stretch                  6    17                       1.09525
   17 Stretch                  6    18                       1.09541
   18 Stretch                  6    19                       1.09521
   19 Bend                     1     2     3               110.94053
   20 Bend                     1     2    10               109.35199
   21 Bend                     2     1     7               111.29963
   22 Bend                     2     1     8               111.49359
   23 Bend                     2     1     9               109.52167
   24 Bend                     2     3     4               112.03969
   25 Bend                     2     3    11               109.65013
   26 Bend                     2     3    12               109.41120
   27 Bend                     3     2    10               109.55768
   28 Bend                     3     4     5               112.49559
   29 Bend                     3     4     6               109.62336
   30 Bend                     3     4    13               108.91012
   31 Bend                     4     3    11               109.19691
   32 Bend                     4     3    12               108.84309
   33 Bend                     4     5    14               111.23666
   34 Bend                     4     5    15               110.64810
   35 Bend                     4     5    16               111.39352
   36 Bend                     4     6    17               110.82482
   37 Bend                     4     6    18               110.84382
   38 Bend                     4     6    19               111.30150
   39 Bend                     5     4     6               109.54222
   40 Bend                     5     4    13               108.21036
   41 Bend                     6     4    13               107.94346
   42 Bend                     7     1     8               109.03252
   43 Bend                     7     1     9               107.43804
   44 Bend                     8     1     9               107.91318
   45 Bend                    11     3    12               107.59294
   46 Bend                    14     5    15               107.87389
   47 Bend                    14     5    16               108.14210
   48 Bend                    15     5    16               107.38568
   49 Bend                    17     6    18               107.68129
   50 Bend                    17     6    19               108.04076
   51 Bend                    18     6    19               108.00758
   52 Torsion                  1     2     3     4         179.05686
   53 Torsion                  1     2     3    11         -59.52845
   54 Torsion                  1     2     3    12          58.25352
   55 Torsion                  2     3     4     5          60.86133
   56 Torsion                  2     3     4     6        -176.99614
   57 Torsion                  2     3     4    13         -59.09957
   58 Torsion                  3     2     1     7          59.10770
   59 Torsion                  3     2     1     8         -62.87739
   60 Torsion                  3     2     1     9         177.75983
   61 Torsion                  3     4     5    14          58.59608
   62 Torsion                  3     4     5    15         178.48562
   63 Torsion                  3     4     5    16         -62.13607
   64 Torsion                  3     4     6    17          58.12942
   65 Torsion                  3     4     6    18         177.63608
   66 Torsion                  3     4     6    19         -62.13183
   67 Torsion                  4     3     2    10          58.22808
   68 Torsion                  5     4     3    11         -60.81369
   69 Torsion                  5     4     3    12        -178.00700
   70 Torsion                  5     4     6    17        -177.98140
   71 Torsion                  5     4     6    18         -58.47474
   72 Torsion                  5     4     6    19          61.75735
   73 Torsion                  6     4     3    11          61.32884
   74 Torsion                  6     4     3    12         -55.86447
   75 Torsion                  6     4     5    14         -63.59235
   76 Torsion                  6     4     5    15          56.29719
   77 Torsion                  6     4     5    16         175.67550
   78 Torsion                  7     1     2    10        -179.94207
   79 Torsion                  8     1     2    10          58.07284
   80 Torsion                  9     1     2    10         -61.28994
   81 Torsion                 10     2     3    11         179.64276
   82 Torsion                 10     2     3    12         -62.57526
   83 Torsion                 11     3     4    13         179.22541
   84 Torsion                 12     3     4    13          62.03210
   85 Torsion                 13     4     5    14         178.96128
   86 Torsion                 13     4     5    15         -61.14919
   87 Torsion                 13     4     5    16          58.22913
   88 Torsion                 13     4     6    17         -60.36789
   89 Torsion                 13     4     6    18          59.13878
   90 Torsion                 13     4     6    19         179.37086


            XYZ format geometry
            -------------------
    19
 geometry
 C                    -0.16849766    -2.71643333    -0.17361630
 N                     0.35624530    -1.43474078     0.28126639
 C                    -0.51328289    -0.33362593    -0.14027755
 C                     0.00624460     1.03311897     0.34787799
 C                     1.39586841     1.36246598    -0.20354224
 C                    -0.97956755     2.13270767    -0.05752420
 H                    -0.25969448    -2.74432855    -1.26432046
 H                    -1.14546059    -2.93092150     0.27200541
 H                     0.51784586    -3.51706943     0.11866062
 H                     0.42972293    -1.44147803     1.29758106
 H                    -0.58833653    -0.32105680    -1.23448705
 H                    -1.52281535    -0.49247865     0.25964153
 H                     0.06635602     1.02005983     1.44437691
 H                     1.39646079     1.37031056    -1.29886328
 H                     1.72391297     2.35014535     0.14010526
 H                     2.14160443     0.63485469     0.13253822
 H                    -1.97417556     1.93606259     0.35679919
 H                    -0.65044145     3.10839397     0.31615596
 H                    -1.07328557     2.20129130    -1.14656425

 ==============================================================================
                                internuclear distances
 ------------------------------------------------------------------------------
       center one      |      center two      | atomic units |  angstroms
 ------------------------------------------------------------------------------
    2 N                |   1 C                |     2.75473  |     1.45774
    3 C                |   2 N                |     2.76845  |     1.46500
    4 C                |   3 C                |     2.91300  |     1.54149
    5 C                |   4 C                |     2.89294  |     1.53088
    6 C                |   4 C                |     2.89398  |     1.53143
    7 H                |   1 C                |     2.06900  |     1.09487
    8 H                |   1 C                |     2.06926  |     1.09501
    9 H                |   1 C                |     2.06794  |     1.09431
   10 H                |   2 N                |     1.92561  |     1.01899
   11 H                |   3 C                |     2.07275  |     1.09685
   12 H                |   3 C                |     2.07382  |     1.09742
   13 H                |   4 C                |     2.07534  |     1.09822
   14 H                |   5 C                |     2.06991  |     1.09535
   15 H                |   5 C                |     2.07114  |     1.09600
   16 H                |   5 C                |     2.06879  |     1.09476
   17 H                |   6 C                |     2.06973  |     1.09525
   18 H                |   6 C                |     2.07003  |     1.09541
   19 H                |   6 C                |     2.06966  |     1.09521
 ------------------------------------------------------------------------------
                         number of included internuclear distances:         18
 ==============================================================================



 ==============================================================================
                                 internuclear angles
 ------------------------------------------------------------------------------
        center 1       |       center 2       |       center 3       |  degrees
 ------------------------------------------------------------------------------
    2 N                |   1 C                |   7 H                |   111.30
    2 N                |   1 C                |   8 H                |   111.49
    2 N                |   1 C                |   9 H                |   109.52
    7 H                |   1 C                |   8 H                |   109.03
    7 H                |   1 C                |   9 H                |   107.44
    8 H                |   1 C                |   9 H                |   107.91
    1 C                |   2 N                |   3 C                |   110.94
    1 C                |   2 N                |  10 H                |   109.35
    3 C                |   2 N                |  10 H                |   109.56
    2 N                |   3 C                |   4 C                |   112.04
    2 N                |   3 C                |  11 H                |   109.65
    2 N                |   3 C                |  12 H                |   109.41
    4 C                |   3 C                |  11 H                |   109.20
    4 C                |   3 C                |  12 H                |   108.84
   11 H                |   3 C                |  12 H                |   107.59
    3 C                |   4 C                |   5 C                |   112.50
    3 C                |   4 C                |   6 C                |   109.62
    3 C                |   4 C                |  13 H                |   108.91
    5 C                |   4 C                |   6 C                |   109.54
    5 C                |   4 C                |  13 H                |   108.21
    6 C                |   4 C                |  13 H                |   107.94
    4 C                |   5 C                |  14 H                |   111.24
    4 C                |   5 C                |  15 H                |   110.65
    4 C                |   5 C                |  16 H                |   111.39
   14 H                |   5 C                |  15 H                |   107.87
   14 H                |   5 C                |  16 H                |   108.14
   15 H                |   5 C                |  16 H                |   107.39
    4 C                |   6 C                |  17 H                |   110.82
    4 C                |   6 C                |  18 H                |   110.84
    4 C                |   6 C                |  19 H                |   111.30
   17 H                |   6 C                |  18 H                |   107.68
   17 H                |   6 C                |  19 H                |   108.04
   18 H                |   6 C                |  19 H                |   108.01
 ------------------------------------------------------------------------------
                            number of included internuclear angles:         33
 ==============================================================================





 Summary of "ao basis" -> "" (cartesian)
 ------------------------------------------------------------------------------
       Tag                 Description            Shells   Functions and Types
 ---------------- ------------------------------  ------  ---------------------
 *                         def2-SV(P)                 on all atoms 


  pbe96 is a nonlocal functional; adding pw91lda local functional. 


                           NWChem Geometry Optimization
                           ----------------------------




                                   prod_4_redox


  no constraints, skipping    0.0000000000000000     
 maximum gradient threshold         (gmax) =   0.000450
 rms gradient threshold             (grms) =   0.000300
 maximum cartesian step threshold   (xmax) =   0.001800
 rms cartesian step threshold       (xrms) =   0.001200
 fixed trust radius                (trust) =   0.300000
 maximum step size to saddle      (sadstp) =   0.100000
 energy precision                  (eprec) =   5.0D-06
 maximum number of steps          (nptopt) =  300
 initial hessian option           (inhess) =    0
 line search option               (linopt) =    1
 hessian update option            (modupd) =    1
 saddle point option              (modsad) =    0
 initial eigen-mode to follow     (moddir) =    0
 initial variable to follow       (vardir) =    0
 follow first negative mode     (firstneg) =    T
 apply conjugacy                    (opcg) =    F
 source of zmatrix                         =   autoz   


          -------------------
          Energy Minimization
          -------------------


 Names of Z-matrix variables 
    1              2              3              4              5         
    6              7              8              9             10         
   11             12             13             14             15         
   16             17             18             19             20         
   21             22             23             24             25         
   26             27             28             29             30         
   31             32             33             34             35         
   36             37             38             39             40         
   41             42             43             44             45         
   46             47             48             49             50         
   51             52             53             54             55         
   56             57             58             59             60         
   61             62             63             64             65         
   66             67             68             69             70         
   71             72             73             74             75         
   76             77             78             79             80         
   81             82             83             84             85         
   86             87             88             89             90         

 Variables with the same non-blank name are constrained to be equal


 Using diagonal initial Hessian 
 Scaling for Hessian diagonals: bonds = 1.00  angles = 0.25  torsions = 0.10

          --------
          Step   0
          --------


                         Geometry "geometry" -> "geometry"
                         ---------------------------------

 Output coordinates in angstroms (scale by  1.889725989 to convert to a.u.)

  No.       Tag          Charge          X              Y              Z
 ---- ---------------- ---------- -------------- -------------- --------------
    1 C                    6.0000    -0.16849766    -2.71643333    -0.17361630
    2 N                    7.0000     0.35624530    -1.43474078     0.28126639
    3 C                    6.0000    -0.51328289    -0.33362593    -0.14027755
    4 C                    6.0000     0.00624460     1.03311897     0.34787799
    5 C                    6.0000     1.39586841     1.36246598    -0.20354224
    6 C                    6.0000    -0.97956755     2.13270767    -0.05752420
    7 H                    1.0000    -0.25969448    -2.74432855    -1.26432046
    8 H                    1.0000    -1.14546059    -2.93092150     0.27200541
    9 H                    1.0000     0.51784586    -3.51706943     0.11866062
   10 H                    1.0000     0.42972293    -1.44147803     1.29758106
   11 H                    1.0000    -0.58833653    -0.32105680    -1.23448705
   12 H                    1.0000    -1.52281535    -0.49247865     0.25964153
   13 H                    1.0000     0.06635602     1.02005983     1.44437691
   14 H                    1.0000     1.39646079     1.37031056    -1.29886328
   15 H                    1.0000     1.72391297     2.35014535     0.14010526
   16 H                    1.0000     2.14160443     0.63485469     0.13253822
   17 H                    1.0000    -1.97417556     1.93606259     0.35679919
   18 H                    1.0000    -0.65044145     3.10839397     0.31615596
   19 H                    1.0000    -1.07328557     2.20129130    -1.14656425

      Atomic Mass 
      ----------- 

      C                 12.000000
      N                 14.003070
      H                  1.007825


 Effective nuclear repulsion energy (a.u.)     256.9318546277

            Nuclear Dipole moment (a.u.) 
            ----------------------------
        X                 Y               Z
 ---------------- ---------------- ----------------
     0.0000000000    -0.0000000000     0.0000000000


                                 NWChem DFT Module
                                 -----------------


                                   prod_4_redox


                      Basis "ao basis" -> "ao basis" (cartesian)
                      -----
  C (Carbon)
  ----------
            Exponent  Coefficients 
       -------------- ---------------------------------------------------------
  1 S  1.23840169E+03  0.005457
  1 S  1.86290050E+02  0.040638
  1 S  4.22511763E+01  0.180256
  1 S  1.16765579E+01  0.463151
  1 S  3.59305065E+00  0.440872

  2 S  4.02451474E-01  1.000000

  3 S  1.30901827E-01  1.000000

  4 P  9.46809706E+00  0.038388
  4 P  2.01035451E+00  0.211170
  4 P  5.47710047E-01  0.513282

  5 P  1.52686138E-01  1.000000

  6 D  8.00000000E-01  1.000000

  N (Nitrogen)
  ------------
            Exponent  Coefficients 
       -------------- ---------------------------------------------------------
  1 S  1.71284159E+03 -0.005393
  1 S  2.57648127E+02 -0.040222
  1 S  5.84582459E+01 -0.179311
  1 S  1.61983679E+01 -0.463763
  1 S  5.00526008E+00 -0.441714

  2 S  5.87318566E-01  1.000000

  3 S  1.87645923E-01  1.000000

  4 P  1.35714702E+01 -0.040072
  4 P  2.92573729E+00 -0.218070
  4 P  7.99277508E-01 -0.512945

  5 P  2.19543480E-01  1.000000

  6 D  1.00000000E+00  1.000000

  H (Hydrogen)
  ------------
            Exponent  Coefficients 
       -------------- ---------------------------------------------------------
  1 S  1.30107010E+01  0.019682
  1 S  1.96225720E+00  0.137965
  1 S  4.44537960E-01  0.478319

  2 S  1.21949620E-01  1.000000



 Summary of "ao basis" -> "ao basis" (cartesian)
 ------------------------------------------------------------------------------
       Tag                 Description            Shells   Functions and Types
 ---------------- ------------------------------  ------  ---------------------
 C                         def2-SV(P)                6       15   3s2p1d
 N                         def2-SV(P)                6       15   3s2p1d
 H                         def2-SV(P)                2        2   2s




 Summary of "ao basis" -> "ao basis" (cartesian)
 ------------------------------------------------------------------------------
       Tag                 Description            Shells   Functions and Types
 ---------------- ------------------------------  ------  ---------------------
 C                         def2-SV(P)                6       15   3s2p1d
 N                         def2-SV(P)                6       15   3s2p1d
 H                         def2-SV(P)                2        2   2s


  Caching 1-el integrals 

            General Information
            -------------------
          SCF calculation type: DFT
          Wavefunction type:  closed shell.
          No. of atoms     :    19
          No. of electrons :    50
           Alpha electrons :    25
            Beta electrons :    25
          Charge           :     0
          Spin multiplicity:     1
          Use of symmetry is: off; symmetry adaption is: off
          Maximum number of iterations:  50
          AO basis - number of functions:   116
                     number of shells:    62
          Convergence on energy requested:  1.00D-06
          Convergence on density requested:  1.00D-05
          Convergence on gradient requested:  5.00D-04

              XC Information
              --------------
          PerdewBurkeErnzerhof Exchange Functional  1.000          
            Perdew 1991 LDA Correlation Functional  1.000 local    
           PerdewBurkeErnz. Correlation Functional  1.000 non-local

             Grid Information
             ----------------
          Grid used for XC integration:  xcoarse   
          Radial quadrature: Mura-Knowles        
          Angular quadrature: Lebedev. 
          Tag              B.-S. Rad. Rad. Pts. Rad. Cut. Ang. Pts.
          ---              ---------- --------- --------- ---------
          C                   0.70       21          13.0       194
          N                   0.65       21          11.0       194
          H                   0.35       21          14.0       194
          Grid pruning is: on 
          Number of quadrature shells:   399
          Spatial weights used:  Erf1

          Convergence Information
          -----------------------
          Convergence aids based upon iterative change in 
          total energy or number of iterations. 
          Levelshifting, if invoked, occurs when the 
          HOMO/LUMO gap drops below (HL_TOL):  1.00D-02
          DIIS, if invoked, will attempt to extrapolate 
          using up to (NFOCK): 10 stored Fock matrices.

                    Damping( 0%)  Levelshifting(0.5)       DIIS
                  --------------- ------------------- ---------------
          dE  on:    start            ASAP                start   
          dE off:    2 iters         50 iters            50 iters 


      Screening Tolerance Information
      -------------------------------
          Density screening/tol_rho:  1.00D-10
          AO Gaussian exp screening on grid/accAOfunc:  14
          CD Gaussian exp screening on grid/accCDfunc:  20
          XC Gaussian exp screening on grid/accXCfunc:  20
          Schwarz screening/accCoul:  1.00D-08

      Dispersion Parameters
      ---------------------

             DFT-D3 Model   
          s6 scale factor  :        1.000000000000
          s8 scale factor  :        0.722000000000
          sr6 scale factor :        1.217000000000
          sr8 scale factor :        1.000000000000
              vdW contrib  :       -0.007227682802


      Superposition of Atomic Density Guess
      -------------------------------------

 Sum of atomic energies:        -248.85886134

      Non-variational initial energy
      ------------------------------

 Total energy =    -253.281442
 1-e energy   =    -841.492917
 2-e energy   =     331.279621
 HOMO         =      -0.280932
 LUMO         =       0.090331

   Time after variat. SCF:      0.2
   Time prior to 1st pass:      0.2
 Local filesystem for scratch_dir

 Integral file          = /data/EMPTY.aoints.0
 Record size in doubles =  65536        No. of integs per rec  =  43688
 Max. records in memory =    360        Max. records in file   =  13641
 No. of bits per label  =      8        No. of bits per value  =     64


 #quartets = 1.601D+06 #integrals = 1.806D+07 #direct =  0.0% #cached =100.0%


File balance: exchanges=     1  moved=    13  time=   0.0

 Local filesystem for scratch_dir

 Grid_pts file          = /data/EMPTY.gridpts.0
 Record size in doubles =  12289        No. of grid_pts per rec  =   3070
 Max. records in memory =     15        Max. recs in file   =     72751


           Memory utilization after 1st SCF pass: 
           Heap Space remaining (MW):        0.00                  34
          Stack Space remaining (MW):       16.78            16776052

   convergence    iter        energy       DeltaE   RMS-Dens  Diis-err    time
 ---------------- ----- ----------------- --------- --------- ---------  ------
 d= 0,ls=0.0,diis     1   -252.4851220615 -5.09D+02  9.81D-03  6.35D-01     1.1
 d= 0,ls=0.0,diis     2   -252.5231914627 -3.81D-02  5.26D-03  1.86D-01     1.4
 d= 0,ls=0.0,diis     3   -252.5264298813 -3.24D-03  2.46D-03  1.67D-01     1.6
 d= 0,ls=0.0,diis     4   -252.5434806302 -1.71D-02  4.37D-04  1.78D-03     1.9
 d= 0,ls=0.0,diis     5   -252.5436570462 -1.76D-04  1.33D-04  2.33D-04     2.2
  Resetting Diis
 d= 0,ls=0.0,diis     6   -252.5436861798 -2.91D-05  2.77D-05  7.68D-06     2.4
 d= 0,ls=0.0,diis     7   -252.5436871253 -9.45D-07  1.28D-05  4.01D-07     2.7
 d= 0,ls=0.0,diis     8   -252.5436870979  2.73D-08  6.49D-06  6.39D-07     2.9


         Total DFT energy =     -252.543687097943
      One electron energy =     -848.247763256996
           Coulomb energy =      377.222034631741
    Exchange-Corr. energy =      -38.442585417612
 Nuclear repulsion energy =      256.931854627726

    Dispersion correction =       -0.007227682802

 Numeric. integr. density =       49.997677656573

     Total iterative time =      2.7s



                       DFT Final Molecular Orbital Analysis
                       ------------------------------------

 Vector    1  Occ=2.000000D+00  E=-1.398624D+01
              MO Center=  3.6D-01, -1.4D+00,  2.8D-01, r^2= 2.0D-02
   Bfn.  Coefficient  Atom+Function         Bfn.  Coefficient  Atom+Function  
  ----- ------------  ---------------      ----- ------------  ---------------
    16      0.985385   2 N  s                17     -0.056080   2 N  s         
    18      0.033601   2 N  s         

 Vector    2  Occ=2.000000D+00  E=-9.918070D+00
              MO Center= -5.1D-01, -3.3D-01, -1.4D-01, r^2= 2.8D-02
   Bfn.  Coefficient  Atom+Function         Bfn.  Coefficient  Atom+Function  
  ----- ------------  ---------------      ----- ------------  ---------------
    31      0.986462   3 C  s                32      0.056883   3 C  s         
    33     -0.044414   3 C  s         

 Vector    3  Occ=2.000000D+00  E=-9.914570D+00
              MO Center= -1.7D-01, -2.7D+00, -1.7D-01, r^2= 2.8D-02
   Bfn.  Coefficient  Atom+Function         Bfn.  Coefficient  Atom+Function  
  ----- ------------  ---------------      ----- ------------  ---------------
     1      0.986371   1 C  s                 2      0.056507   1 C  s         
     3     -0.040846   1 C  s         

 Vector    4  Occ=2.000000D+00  E=-9.907133D+00
              MO Center=  6.2D-03,  1.0D+00,  3.5D-01, r^2= 2.8D-02
   Bfn.  Coefficient  Atom+Function         Bfn.  Coefficient  Atom+Function  
  ----- ------------  ---------------      ----- ------------  ---------------
    46      0.986559   4 C  s                48     -0.077440   4 C  s         
    47      0.058899   4 C  s         

 Vector    5  Occ=2.000000D+00  E=-9.889972D+00
              MO Center= -9.8D-01,  2.1D+00, -5.8D-02, r^2= 2.8D-02
   Bfn.  Coefficient  Atom+Function         Bfn.  Coefficient  Atom+Function  
  ----- ------------  ---------------      ----- ------------  ---------------
    76      0.986297   6 C  s                77      0.057777   6 C  s         
    78     -0.049175   6 C  s         

 Vector    6  Occ=2.000000D+00  E=-9.882776D+00
              MO Center=  1.4D+00,  1.4D+00, -2.0D-01, r^2= 2.8D-02
   Bfn.  Coefficient  Atom+Function         Bfn.  Coefficient  Atom+Function  
  ----- ------------  ---------------      ----- ------------  ---------------
    61      0.986301   5 C  s                62      0.057663   5 C  s         
    63     -0.048918   5 C  s         

 Vector    7  Occ=2.000000D+00  E=-8.110487D-01
              MO Center=  4.6D-02, -1.4D+00,  2.2D-01, r^2= 1.3D+00
   Bfn.  Coefficient  Atom+Function         Bfn.  Coefficient  Atom+Function  
  ----- ------------  ---------------      ----- ------------  ---------------
    17      0.431726   2 N  s                16      0.216710   2 N  s         
    32      0.207053   3 C  s                 2      0.185986   1 C  s         
    18      0.166731   2 N  s                97      0.134440  10 H  s         
    31     -0.111341   3 C  s                 1     -0.100911   1 C  s         
    19      0.089514   2 N  px                5      0.081707   1 C  py        

 Vector    8  Occ=2.000000D+00  E=-7.122079D-01
              MO Center= -1.7D-02,  9.1D-01,  9.3D-02, r^2= 2.8D+00
   Bfn.  Coefficient  Atom+Function         Bfn.  Coefficient  Atom+Function  
  ----- ------------  ---------------      ----- ------------  ---------------
    47      0.328744   4 C  s                77      0.225574   6 C  s         
    62      0.200047   5 C  s                46     -0.171929   4 C  s         
    32      0.132773   3 C  s                76     -0.120881   6 C  s         
     2     -0.119420   1 C  s                17     -0.118584   2 N  s         
    61     -0.108314   5 C  s               103      0.089933  13 H  s         

 Vector    9  Occ=2.000000D+00  E=-6.146892D-01
              MO Center= -2.6D-01, -9.4D-01, -8.6D-02, r^2= 5.0D+00
   Bfn.  Coefficient  Atom+Function         Bfn.  Coefficient  Atom+Function  
  ----- ------------  ---------------      ----- ------------  ---------------
     2      0.332091   1 C  s                32     -0.283557   3 C  s         
    77      0.196475   6 C  s                20      0.168615   2 N  py        
     1     -0.166346   1 C  s                31      0.138906   3 C  s         
    95      0.125534   9 H  s                91      0.114813   7 H  s         
    50      0.113450   4 C  py               93      0.112148   8 H  s         

 Vector   10  Occ=2.000000D+00  E=-6.032795D-01
              MO Center=  4.0D-01,  1.6D+00, -1.2D-01, r^2= 2.9D+00
   Bfn.  Coefficient  Atom+Function         Bfn.  Coefficient  Atom+Function  
  ----- ------------  ---------------      ----- ------------  ---------------
    62      0.372198   5 C  s                77     -0.298589   6 C  s         
    61     -0.187172   5 C  s                49      0.151106   4 C  px        
    76      0.149560   6 C  s               109      0.135645  16 H  s         
   105      0.131886  14 H  s               107      0.131671  15 H  s         
   111     -0.119897  17 H  s               115     -0.107857  19 H  s         

 Vector   11  Occ=2.000000D+00  E=-5.594453D-01
              MO Center= -2.6D-01, -1.1D+00, -1.2D-02, r^2= 4.2D+00
   Bfn.  Coefficient  Atom+Function         Bfn.  Coefficient  Atom+Function  
  ----- ------------  ---------------      ----- ------------  ---------------
     2      0.247140   1 C  s                17     -0.247277   2 N  s         
    32      0.230429   3 C  s                97     -0.202351  10 H  s         
    21      0.164836   2 N  pz               77     -0.145480   6 C  s         
    91      0.136264   7 H  s                 1     -0.124265   1 C  s         
    99      0.123221  11 H  s                16     -0.114048   2 N  s         

 Vector   12  Occ=2.000000D+00  E=-5.018627D-01
              MO Center=  3.5D-02,  7.2D-01,  1.2D-01, r^2= 3.8D+00
   Bfn.  Coefficient  Atom+Function         Bfn.  Coefficient  Atom+Function  
  ----- ------------  ---------------      ----- ------------  ---------------
    47      0.313626   4 C  s               103      0.205046  13 H  s         
    62     -0.150194   5 C  s                46     -0.144707   4 C  s         
    77     -0.135836   6 C  s                51      0.131060   4 C  pz        
    32     -0.126607   3 C  s                21     -0.124925   2 N  pz        
    35      0.124744   3 C  py               99     -0.120065  11 H  s         

 Vector   13  Occ=2.000000D+00  E=-4.260093D-01
              MO Center= -5.1D-02, -8.4D-01,  1.7D-01, r^2= 4.0D+00
   Bfn.  Coefficient  Atom+Function         Bfn.  Coefficient  Atom+Function  
  ----- ------------  ---------------      ----- ------------  ---------------
    21      0.295431   2 N  pz               97     -0.199012  10 H  s         
     5      0.182363   1 C  py               34      0.161718   3 C  px        
    35     -0.145865   3 C  py                6     -0.140140   1 C  pz        
   101     -0.138508  12 H  s                24     -0.127222   2 N  pz        
    95     -0.113618   9 H  s                50      0.095628   4 C  py        

 Vector   14  Occ=2.000000D+00  E=-4.154084D-01
              MO Center= -1.3D-01,  3.0D-01,  5.5D-02, r^2= 4.3D+00
   Bfn.  Coefficient  Atom+Function         Bfn.  Coefficient  Atom+Function  
  ----- ------------  ---------------      ----- ------------  ---------------
    51      0.230447   4 C  pz               36      0.163058   3 C  pz        
   101      0.157010  12 H  s                 4     -0.152698   1 C  px        
    35     -0.149369   3 C  py               64      0.143526   5 C  px        
    81      0.139305   6 C  pz               34     -0.128098   3 C  px        
   103      0.125073  13 H  s                19      0.116998   2 N  px        

 Vector   15  Occ=2.000000D+00  E=-3.948964D-01
              MO Center= -7.7D-02, -4.7D-01, -3.6D-02, r^2= 4.5D+00
   Bfn.  Coefficient  Atom+Function         Bfn.  Coefficient  Atom+Function  
  ----- ------------  ---------------      ----- ------------  ---------------
    20      0.287501   2 N  py               34     -0.250575   3 C  px        
     5      0.200749   1 C  py               50      0.165631   4 C  py        
    65      0.156861   5 C  py              101      0.141698  12 H  s         
     6      0.140149   1 C  pz               23     -0.134773   2 N  py        
    91     -0.128018   7 H  s                79      0.125107   6 C  px        

 Vector   16  Occ=2.000000D+00  E=-3.794141D-01
              MO Center= -2.2D-01, -2.6D-01,  6.7D-02, r^2= 6.4D+00
   Bfn.  Coefficient  Atom+Function         Bfn.  Coefficient  Atom+Function  
  ----- ------------  ---------------      ----- ------------  ---------------
     4      0.270516   1 C  px               93     -0.212239   8 H  s         
    79     -0.206137   6 C  px              111      0.186229  17 H  s         
    64      0.172843   5 C  px              109      0.146140  16 H  s         
    20      0.142276   2 N  py                7      0.110981   1 C  px        
    51      0.103643   4 C  pz               81      0.103186   6 C  pz        

 Vector   17  Occ=2.000000D+00  E=-3.563040D-01
              MO Center= -1.4D-01, -2.6D-01, -5.4D-02, r^2= 7.3D+00
   Bfn.  Coefficient  Atom+Function         Bfn.  Coefficient  Atom+Function  
  ----- ------------  ---------------      ----- ------------  ---------------
     5     -0.212626   1 C  py               95      0.213596   9 H  s         
     4      0.203294   1 C  px               80      0.204288   6 C  py        
   113      0.197766  18 H  s                99      0.142599  11 H  s         
    93     -0.132079   8 H  s                79      0.131083   6 C  px        
    33      0.129708   3 C  s                65      0.122908   5 C  py        

 Vector   18  Occ=2.000000D+00  E=-3.457355D-01
              MO Center=  2.3D-01, -6.1D-01, -3.1D-01, r^2= 5.8D+00
   Bfn.  Coefficient  Atom+Function         Bfn.  Coefficient  Atom+Function  
  ----- ------------  ---------------      ----- ------------  ---------------
     6      0.301094   1 C  pz               91     -0.240962   7 H  s         
    65     -0.192544   5 C  py               66      0.177842   5 C  pz        
    36     -0.171683   3 C  pz               49      0.151898   4 C  px        
     9      0.144613   1 C  pz              105     -0.143993  14 H  s         
   109      0.143566  16 H  s                99      0.140231  11 H  s         

 Vector   19  Occ=2.000000D+00  E=-3.341271D-01
              MO Center= -2.4D-01,  1.5D+00, -4.0D-01, r^2= 4.0D+00
   Bfn.  Coefficient  Atom+Function         Bfn.  Coefficient  Atom+Function  
  ----- ------------  ---------------      ----- ------------  ---------------
    81      0.349127   6 C  pz              115     -0.289451  19 H  s         
    66     -0.247199   5 C  pz              105      0.203711  14 H  s         
    84      0.167127   6 C  pz              113      0.129395  18 H  s         
    69     -0.117814   5 C  pz              111      0.104788  17 H  s         
   116     -0.099690  19 H  s                34      0.092679   3 C  px        

 Vector   20  Occ=2.000000D+00  E=-3.244249D-01
              MO Center= -1.0D-01, -2.1D-01, -1.6D-01, r^2= 5.4D+00
   Bfn.  Coefficient  Atom+Function         Bfn.  Coefficient  Atom+Function  
  ----- ------------  ---------------      ----- ------------  ---------------
    36      0.263912   3 C  pz               99     -0.214032  11 H  s         
     4      0.184482   1 C  px               97     -0.177573  10 H  s         
    66     -0.159433   5 C  pz               80      0.158708   6 C  py        
    21      0.153856   2 N  pz               95      0.139505   9 H  s         
   101      0.137614  12 H  s               105      0.136363  14 H  s         

 Vector   21  Occ=2.000000D+00  E=-3.176150D-01
              MO Center=  2.4D-01, -3.1D-01, -6.6D-02, r^2= 6.6D+00
   Bfn.  Coefficient  Atom+Function         Bfn.  Coefficient  Atom+Function  
  ----- ------------  ---------------      ----- ------------  ---------------
    65      0.244356   5 C  py                6      0.206731   1 C  pz        
   107      0.205329  15 H  s                91     -0.193807   7 H  s         
    34      0.191155   3 C  px               95      0.173513   9 H  s         
    21      0.149983   2 N  pz              113     -0.150551  18 H  s         
    80     -0.148677   6 C  py               97     -0.144423  10 H  s         

 Vector   22  Occ=2.000000D+00  E=-2.845196D-01
              MO Center=  1.8D-01,  1.2D+00,  7.0D-02, r^2= 3.3D+00
   Bfn.  Coefficient  Atom+Function         Bfn.  Coefficient  Atom+Function  
  ----- ------------  ---------------      ----- ------------  ---------------
    49      0.316541   4 C  px               64     -0.305181   5 C  px        
    79     -0.289351   6 C  px              109     -0.232828  16 H  s         
   111      0.195769  17 H  s                67     -0.163421   5 C  px        
    82     -0.147273   6 C  px              110     -0.120970  16 H  s         
    52      0.117799   4 C  px              112      0.115007  17 H  s         

 Vector   23  Occ=2.000000D+00  E=-2.828529D-01
              MO Center=  6.7D-02,  9.8D-01,  9.6D-02, r^2= 3.4D+00
   Bfn.  Coefficient  Atom+Function         Bfn.  Coefficient  Atom+Function  
  ----- ------------  ---------------      ----- ------------  ---------------
    51      0.284144   4 C  pz              103      0.277585  13 H  s         
    66     -0.187623   5 C  pz               64      0.171849   5 C  px        
   104      0.162320  13 H  s               105      0.163034  14 H  s         
   115      0.155349  19 H  s                81     -0.152198   6 C  pz        
    50     -0.139941   4 C  py               99      0.135444  11 H  s         

 Vector   24  Occ=2.000000D+00  E=-2.751653D-01
              MO Center=  3.6D-02,  5.8D-01,  6.5D-02, r^2= 4.3D+00
   Bfn.  Coefficient  Atom+Function         Bfn.  Coefficient  Atom+Function  
  ----- ------------  ---------------      ----- ------------  ---------------
    35      0.305041   3 C  py               50     -0.298977   4 C  py        
    80      0.188422   6 C  py              107      0.175431  15 H  s         
    38      0.163783   3 C  py              113      0.162178  18 H  s         
     5      0.161088   1 C  py               65      0.154841   5 C  py        
    51     -0.152986   4 C  pz               20      0.148627   2 N  py        

 Vector   25  Occ=2.000000D+00  E=-1.702677D-01
              MO Center=  2.2D-01, -1.4D+00,  1.7D-01, r^2= 1.9D+00
   Bfn.  Coefficient  Atom+Function         Bfn.  Coefficient  Atom+Function  
  ----- ------------  ---------------      ----- ------------  ---------------
    19      0.481766   2 N  px               22     -0.402432   2 N  px        
    18     -0.234202   2 N  s                21     -0.212656   2 N  pz        
    94     -0.184464   8 H  s                48      0.179659   4 C  s         
   101     -0.180549  12 H  s               102     -0.178844  12 H  s         
    93     -0.177822   8 H  s                17     -0.150866   2 N  s         

 Vector   26  Occ=0.000000D+00  E= 3.253341D-02
              MO Center= -2.8D-01, -3.6D-01,  7.2D-01, r^2= 7.7D+00
   Bfn.  Coefficient  Atom+Function         Bfn.  Coefficient  Atom+Function  
  ----- ------------  ---------------      ----- ------------  ---------------
    33      0.862283   3 C  s                 3      0.799951   1 C  s         
   102     -0.715325  12 H  s               104     -0.708697  13 H  s         
    98     -0.689324  10 H  s                78      0.675831   6 C  s         
    48      0.612533   4 C  s                18      0.567768   2 N  s         
    63      0.564578   5 C  s                94     -0.516545   8 H  s         

 Vector   27  Occ=0.000000D+00  E= 5.015900D-02
              MO Center= -2.5D-01,  5.2D-01, -2.9D-02, r^2= 1.0D+01
   Bfn.  Coefficient  Atom+Function         Bfn.  Coefficient  Atom+Function  
  ----- ------------  ---------------      ----- ------------  ---------------
    78      1.481302   6 C  s                 3     -0.857546   1 C  s         
   116     -0.833184  19 H  s                63      0.817699   5 C  s         
   114     -0.730771  18 H  s                98      0.689513  10 H  s         
    18     -0.670089   2 N  s               112     -0.573540  17 H  s         
   106     -0.537498  14 H  s                96      0.524884   9 H  s         

 Vector   28  Occ=0.000000D+00  E= 5.919208D-02
              MO Center= -2.6D-01, -8.0D-01, -3.3D-01, r^2= 8.3D+00
   Bfn.  Coefficient  Atom+Function         Bfn.  Coefficient  Atom+Function  
  ----- ------------  ---------------      ----- ------------  ---------------
     3      1.395078   1 C  s                92     -1.006609   7 H  s         
   104      0.950630  13 H  s               100     -0.910269  11 H  s         
    33      0.828912   3 C  s                48     -0.812681   4 C  s         
    94     -0.626794   8 H  s                98      0.396802  10 H  s         
    96     -0.381784   9 H  s                39     -0.367452   3 C  pz        

 Vector   29  Occ=0.000000D+00  E= 8.665079D-02
              MO Center=  6.9D-03,  7.4D-01,  2.9D-02, r^2= 9.1D+00
   Bfn.  Coefficient  Atom+Function         Bfn.  Coefficient  Atom+Function  
  ----- ------------  ---------------      ----- ------------  ---------------
    63      1.966598   5 C  s               106     -1.011489  14 H  s         
   112      0.974616  17 H  s               102      0.927886  12 H  s         
    78     -0.853034   6 C  s               108     -0.830795  15 H  s         
   110     -0.756423  16 H  s                33     -0.598144   3 C  s         
    96     -0.424633   9 H  s                37      0.417949   3 C  px        

 Vector   30  Occ=0.000000D+00  E= 9.020104D-02
              MO Center=  9.1D-02, -2.1D-01,  2.4D-02, r^2= 1.2D+01
   Bfn.  Coefficient  Atom+Function         Bfn.  Coefficient  Atom+Function  
  ----- ------------  ---------------      ----- ------------  ---------------
     3      1.721382   1 C  s               114     -1.120809  18 H  s         
    96     -1.063542   9 H  s                78      0.862590   6 C  s         
    18     -0.838907   2 N  s               100      0.591194  11 H  s         
   108     -0.542135  15 H  s                92     -0.525487   7 H  s         
    94     -0.519773   8 H  s               106      0.486523  14 H  s         

 Vector   31  Occ=0.000000D+00  E= 1.030590D-01
              MO Center=  2.1D-02,  1.6D-01, -2.1D-01, r^2= 1.2D+01
   Bfn.  Coefficient  Atom+Function         Bfn.  Coefficient  Atom+Function  
  ----- ------------  ---------------      ----- ------------  ---------------
    78      1.621061   6 C  s               116     -1.185135  19 H  s         
    96     -1.039860   9 H  s               108      0.999935  15 H  s         
    63     -0.847041   5 C  s                92      0.535009   7 H  s         
   102      0.536255  12 H  s               112     -0.509611  17 H  s         
    98     -0.506422  10 H  s                48     -0.491110   4 C  s         

 Vector   32  Occ=0.000000D+00  E= 1.122107D-01
              MO Center= -1.7D-01, -3.6D-01, -1.5D-01, r^2= 1.0D+01
   Bfn.  Coefficient  Atom+Function         Bfn.  Coefficient  Atom+Function  
  ----- ------------  ---------------      ----- ------------  ---------------
   110      1.065721  16 H  s                92      1.036872   7 H  s         
   112      0.985340  17 H  s                94     -0.804604   8 H  s         
   116     -0.612975  19 H  s                 9      0.535217   1 C  pz        
    63     -0.532771   5 C  s                 3     -0.516035   1 C  s         
     7     -0.457456   1 C  px               96      0.457039   9 H  s         

 Vector   33  Occ=0.000000D+00  E= 1.139244D-01
              MO Center= -6.0D-02,  2.1D-01, -6.4D-02, r^2= 9.1D+00
   Bfn.  Coefficient  Atom+Function         Bfn.  Coefficient  Atom+Function  
  ----- ------------  ---------------      ----- ------------  ---------------
    63     -2.015091   5 C  s                48      1.867252   4 C  s         
   104     -1.007721  13 H  s               100     -0.827893  11 H  s         
   112      0.699663  17 H  s                92     -0.692078   7 H  s         
   106      0.692428  14 H  s               102      0.644764  12 H  s         
    39     -0.591135   3 C  pz              110      0.580265  16 H  s         

 Vector   34  Occ=0.000000D+00  E= 1.229879D-01
              MO Center= -2.4D-01, -6.4D-01,  2.6D-01, r^2= 9.5D+00
   Bfn.  Coefficient  Atom+Function         Bfn.  Coefficient  Atom+Function  
  ----- ------------  ---------------      ----- ------------  ---------------
    94     -1.307080   8 H  s                 3      1.272226   1 C  s         
   104     -1.083851  13 H  s                33     -0.974090   3 C  s         
    48      0.824057   4 C  s                18     -0.756826   2 N  s         
   106     -0.721232  14 H  s                54      0.623820   4 C  pz        
   108      0.597938  15 H  s               102      0.546469  12 H  s         

 Vector   35  Occ=0.000000D+00  E= 1.317234D-01
              MO Center= -2.6D-02, -6.7D-01,  1.8D-01, r^2= 1.1D+01
   Bfn.  Coefficient  Atom+Function         Bfn.  Coefficient  Atom+Function  
  ----- ------------  ---------------      ----- ------------  ---------------
    78      1.729281   6 C  s                48     -1.470111   4 C  s         
    96      1.223760   9 H  s                33     -0.992269   3 C  s         
   104      0.977444  13 H  s                18      0.762068   2 N  s         
   114     -0.711296  18 H  s                92     -0.662913   7 H  s         
     7     -0.624749   1 C  px              100      0.608011  11 H  s         

 Vector   36  Occ=0.000000D+00  E= 1.456028D-01
              MO Center= -1.1D-01,  1.1D+00, -3.7D-01, r^2= 8.9D+00
   Bfn.  Coefficient  Atom+Function         Bfn.  Coefficient  Atom+Function  
  ----- ------------  ---------------      ----- ------------  ---------------
   116      1.168663  19 H  s                33      1.125323   3 C  s         
   114     -1.126719  18 H  s               100     -0.947885  11 H  s         
   108      0.911948  15 H  s               110     -0.773085  16 H  s         
    92      0.738553   7 H  s                84      0.726284   6 C  pz        
    68     -0.656802   5 C  py               94     -0.549518   8 H  s         

 Vector   37  Occ=0.000000D+00  E= 1.475085D-01
              MO Center=  6.8D-01,  6.7D-01, -5.6D-01, r^2= 8.0D+00
   Bfn.  Coefficient  Atom+Function         Bfn.  Coefficient  Atom+Function  
  ----- ------------  ---------------      ----- ------------  ---------------
   106      1.436761  14 H  s               110     -1.069182  16 H  s         
    69      0.857935   5 C  pz              116     -0.779511  19 H  s         
    92      0.656829   7 H  s                33      0.624775   3 C  s         
   100     -0.622324  11 H  s                84     -0.548920   6 C  pz        
   112      0.548960  17 H  s               114      0.548060  18 H  s         

 Vector   38  Occ=0.000000D+00  E= 1.687663D-01
              MO Center= -8.2D-01,  2.6D-01,  4.3D-02, r^2= 8.2D+00
   Bfn.  Coefficient  Atom+Function         Bfn.  Coefficient  Atom+Function  
  ----- ------------  ---------------      ----- ------------  ---------------
   102      1.529196  12 H  s               112     -1.262937  17 H  s         
   100     -0.833380  11 H  s               110      0.776750  16 H  s         
    94     -0.726605   8 H  s               108     -0.717964  15 H  s         
    39     -0.697104   3 C  pz               82     -0.680548   6 C  px        
    33     -0.606928   3 C  s                92      0.596753   7 H  s         

 Vector   39  Occ=0.000000D+00  E= 1.843056D-01
              MO Center= -8.0D-02, -1.3D+00,  1.3D-01, r^2= 6.4D+00
   Bfn.  Coefficient  Atom+Function         Bfn.  Coefficient  Atom+Function  
  ----- ------------  ---------------      ----- ------------  ---------------
    18      1.381519   2 N  s                33     -1.308451   3 C  s         
     8     -1.232866   1 C  py                3     -0.789434   1 C  s         
    98      0.730773  10 H  s               104     -0.654281  13 H  s         
    24     -0.610317   2 N  pz              100      0.525936  11 H  s         
   102      0.523433  12 H  s                22     -0.517860   2 N  px        

 Vector   40  Occ=0.000000D+00  E= 1.971032D-01
              MO Center= -1.9D-01,  1.3D+00, -2.5D-01, r^2= 5.2D+00
   Bfn.  Coefficient  Atom+Function         Bfn.  Coefficient  Atom+Function  
  ----- ------------  ---------------      ----- ------------  ---------------
    48      4.130697   4 C  s                78     -2.378544   6 C  s         
    63     -1.643829   5 C  s                54     -1.399766   4 C  pz        
    67      1.272058   5 C  px               82     -1.262427   6 C  px        
    53      1.114919   4 C  py               83      1.117205   6 C  py        
    33     -0.931888   3 C  s               100      0.789688  11 H  s         

 Vector   41  Occ=0.000000D+00  E= 2.048712D-01
              MO Center= -3.2D-02,  4.0D-01,  1.6D-02, r^2= 4.8D+00
   Bfn.  Coefficient  Atom+Function         Bfn.  Coefficient  Atom+Function  
  ----- ------------  ---------------      ----- ------------  ---------------
    53      2.028395   4 C  py               33      1.982601   3 C  s         
    48     -1.779360   4 C  s                38      1.428360   3 C  py        
    37      0.741320   3 C  px               68     -0.730921   5 C  py        
    54      0.720935   4 C  pz               63      0.667611   5 C  s         
    82     -0.600488   6 C  px               52     -0.581884   4 C  px        

 Vector   42  Occ=0.000000D+00  E= 2.104376D-01
              MO Center=  9.4D-02,  5.0D-01, -1.2D-01, r^2= 4.9D+00
   Bfn.  Coefficient  Atom+Function         Bfn.  Coefficient  Atom+Function  
  ----- ------------  ---------------      ----- ------------  ---------------
    52      2.031843   4 C  px               63     -1.647209   5 C  s         
    67      1.220531   5 C  px               38      1.133412   3 C  py        
    37     -0.926837   3 C  px               69     -0.814995   5 C  pz        
    48      0.727919   4 C  s                78      0.725996   6 C  s         
    18      0.678508   2 N  s                23      0.562996   2 N  py        

 Vector   43  Occ=0.000000D+00  E= 2.384936D-01
              MO Center= -1.0D-01, -1.5D-01,  6.1D-02, r^2= 5.6D+00
   Bfn.  Coefficient  Atom+Function         Bfn.  Coefficient  Atom+Function  
  ----- ------------  ---------------      ----- ------------  ---------------
    33      2.205303   3 C  s                48     -1.450203   4 C  s         
    37      1.067633   3 C  px               53      1.055266   4 C  py        
    23     -1.018728   2 N  py               52      0.979169   4 C  px        
    39      0.901291   3 C  pz               83     -0.764245   6 C  py        
   114      0.677411  18 H  s                 3     -0.558683   1 C  s         

 Vector   44  Occ=0.000000D+00  E= 3.798824D-01
              MO Center=  2.2D-01,  1.7D+00, -1.6D-01, r^2= 4.5D+00
   Bfn.  Coefficient  Atom+Function         Bfn.  Coefficient  Atom+Function  
  ----- ------------  ---------------      ----- ------------  ---------------
    78      0.996969   6 C  s                33     -0.879104   3 C  s         
    53     -0.825695   4 C  py               63      0.789742   5 C  s         
    82      0.599367   6 C  px               68      0.528861   5 C  py        
   109      0.522802  16 H  s               111      0.516492  17 H  s         
   112     -0.483943  17 H  s               110     -0.427786  16 H  s         

 Vector   45  Occ=0.000000D+00  E= 3.900410D-01
              MO Center=  4.2D-01,  5.1D-01, -7.2D-02, r^2= 5.4D+00
   Bfn.  Coefficient  Atom+Function         Bfn.  Coefficient  Atom+Function  
  ----- ------------  ---------------      ----- ------------  ---------------
    33      1.710516   3 C  s                48     -1.647080   4 C  s         
    18     -0.767005   2 N  s                37      0.710202   3 C  px        
     3      0.565619   1 C  s               105     -0.557389  14 H  s         
    53      0.550971   4 C  py               69     -0.540328   5 C  pz        
    78      0.481178   6 C  s                38      0.441141   3 C  py        

 Vector   46  Occ=0.000000D+00  E= 4.023376D-01
              MO Center=  7.6D-02,  5.3D-01, -1.8D-02, r^2= 6.2D+00
   Bfn.  Coefficient  Atom+Function         Bfn.  Coefficient  Atom+Function  
  ----- ------------  ---------------      ----- ------------  ---------------
    63      0.945384   5 C  s                67     -0.666540   5 C  px        
    18      0.464257   2 N  s                84     -0.448325   6 C  pz        
   115     -0.438163  19 H  s                38      0.420351   3 C  py        
    78     -0.420806   6 C  s                62     -0.410890   5 C  s         
    68     -0.376311   5 C  py               82     -0.365123   6 C  px        

 Vector   47  Occ=0.000000D+00  E= 4.087305D-01
              MO Center= -1.0D-01, -7.8D-01, -2.1D-02, r^2= 6.2D+00
   Bfn.  Coefficient  Atom+Function         Bfn.  Coefficient  Atom+Function  
  ----- ------------  ---------------      ----- ------------  ---------------
     3      1.444144   1 C  s                33     -0.747116   3 C  s         
    48     -0.661949   4 C  s                 8      0.609662   1 C  py        
    78      0.600425   6 C  s                 2     -0.556324   1 C  s         
    32      0.542655   3 C  s                83     -0.506039   6 C  py        
    18     -0.500390   2 N  s                63     -0.437310   5 C  s         

 Vector   48  Occ=0.000000D+00  E= 4.151523D-01
              MO Center= -1.4D-01, -3.6D-01, -6.5D-02, r^2= 6.3D+00
   Bfn.  Coefficient  Atom+Function         Bfn.  Coefficient  Atom+Function  
  ----- ------------  ---------------      ----- ------------  ---------------
    48      1.213563   4 C  s                33     -0.797400   3 C  s         
    63     -0.683105   5 C  s                 3     -0.570775   1 C  s         
    53     -0.565403   4 C  py               78     -0.546424   6 C  s         
    18      0.498639   2 N  s                95     -0.455673   9 H  s         
    99      0.449958  11 H  s                 7      0.442609   1 C  px        

 Vector   49  Occ=0.000000D+00  E= 4.460684D-01
              MO Center= -8.3D-02, -1.8D+00, -9.9D-02, r^2= 5.9D+00
   Bfn.  Coefficient  Atom+Function         Bfn.  Coefficient  Atom+Function  
  ----- ------------  ---------------      ----- ------------  ---------------
    48     -1.490301   4 C  s                33      1.437106   3 C  s         
     9     -0.909836   1 C  pz               93      0.684007   8 H  s         
     7      0.672136   1 C  px               91     -0.609251   7 H  s         
    53      0.559453   4 C  py               63      0.546322   5 C  s         
    38      0.513559   3 C  py               84     -0.464386   6 C  pz        

 Vector   50  Occ=0.000000D+00  E= 4.823381D-01
              MO Center= -2.7D-01, -2.6D-01, -8.9D-02, r^2= 6.5D+00
   Bfn.  Coefficient  Atom+Function         Bfn.  Coefficient  Atom+Function  
  ----- ------------  ---------------      ----- ------------  ---------------
    78      1.053103   6 C  s                33      0.931551   3 C  s         
    63     -0.810354   5 C  s                 3     -0.793233   1 C  s         
     7     -0.731254   1 C  px               83     -0.701435   6 C  py        
    52      0.638122   4 C  px               69     -0.591689   5 C  pz        
     9     -0.546845   1 C  pz               18      0.545540   2 N  s         

 Vector   51  Occ=0.000000D+00  E= 5.025059D-01
              MO Center= -5.4D-01, -2.3D-01,  2.1D-03, r^2= 7.2D+00
   Bfn.  Coefficient  Atom+Function         Bfn.  Coefficient  Atom+Function  
  ----- ------------  ---------------      ----- ------------  ---------------
    33      4.166931   3 C  s                48     -1.600261   4 C  s         
    18     -1.549120   2 N  s                53      1.433119   4 C  py        
    39      0.943518   3 C  pz               84     -0.914951   6 C  pz        
    37      0.905450   3 C  px                3      0.695674   1 C  s         
   100     -0.686347  11 H  s                32     -0.668189   3 C  s         

 Vector   52  Occ=0.000000D+00  E= 5.509548D-01
              MO Center=  7.6D-02,  5.0D-01,  1.1D-01, r^2= 5.8D+00
   Bfn.  Coefficient  Atom+Function         Bfn.  Coefficient  Atom+Function  
  ----- ------------  ---------------      ----- ------------  ---------------
    48      2.641011   4 C  s                33     -1.845914   3 C  s         
    63     -1.221185   5 C  s                69     -1.066880   5 C  pz        
    39     -0.948938   3 C  pz               37     -0.806846   3 C  px        
    53     -0.636445   4 C  py                3      0.586207   1 C  s         
    47     -0.529605   4 C  s                 8      0.510310   1 C  py        

 Vector   53  Occ=0.000000D+00  E= 5.560420D-01
              MO Center=  7.0D-02,  4.4D-01, -3.9D-03, r^2= 4.9D+00
   Bfn.  Coefficient  Atom+Function         Bfn.  Coefficient  Atom+Function  
  ----- ------------  ---------------      ----- ------------  ---------------
    48      5.025842   4 C  s                33     -2.866011   3 C  s         
    78     -2.667976   6 C  s                63     -1.779810   5 C  s         
    54     -1.474275   4 C  pz               47     -0.955710   4 C  s         
    38     -0.878371   3 C  py               67      0.864751   5 C  px        
   100      0.835200  11 H  s                83      0.820718   6 C  py        

 Vector   54  Occ=0.000000D+00  E= 5.802612D-01
              MO Center= -1.0D-01,  1.3D-01,  6.7D-02, r^2= 7.1D+00
   Bfn.  Coefficient  Atom+Function         Bfn.  Coefficient  Atom+Function  
  ----- ------------  ---------------      ----- ------------  ---------------
    48      2.531804   4 C  s                63     -2.190890   5 C  s         
    33     -1.904109   3 C  s                78     -1.912022   6 C  s         
    54     -1.380412   4 C  pz                3     -1.106274   1 C  s         
   106      0.754188  14 H  s                69      0.730233   5 C  pz        
     9     -0.707808   1 C  pz               38     -0.675693   3 C  py        

 Vector   55  Occ=0.000000D+00  E= 6.074003D-01
              MO Center= -4.1D-02,  6.9D-01,  1.8D-01, r^2= 7.3D+00
   Bfn.  Coefficient  Atom+Function         Bfn.  Coefficient  Atom+Function  
  ----- ------------  ---------------      ----- ------------  ---------------
    78      2.162234   6 C  s                 3      1.567866   1 C  s         
    53     -1.436081   4 C  py               63      1.351442   5 C  s         
    84      0.925009   6 C  pz              114     -0.928516  18 H  s         
    54     -0.707975   4 C  pz               77     -0.707187   6 C  s         
    62     -0.699703   5 C  s                 2     -0.664421   1 C  s         

 Vector   56  Occ=0.000000D+00  E= 6.127281D-01
              MO Center= -4.2D-01,  5.3D-01,  1.1D-01, r^2= 5.5D+00
   Bfn.  Coefficient  Atom+Function         Bfn.  Coefficient  Atom+Function  
  ----- ------------  ---------------      ----- ------------  ---------------
    63      2.618298   5 C  s                33     -2.325740   3 C  s         
    48     -2.125013   4 C  s                52     -1.559772   4 C  px        
    78     -1.108258   6 C  s                67     -1.046482   5 C  px        
    53     -0.864542   4 C  py                3     -0.797570   1 C  s         
    32      0.792282   3 C  s               112      0.746272  17 H  s         

 Vector   57  Occ=0.000000D+00  E= 6.197518D-01
              MO Center= -3.0D-02,  4.5D-01, -2.1D-01, r^2= 9.3D+00
   Bfn.  Coefficient  Atom+Function         Bfn.  Coefficient  Atom+Function  
  ----- ------------  ---------------      ----- ------------  ---------------
    63      3.083301   5 C  s                 3     -2.339268   1 C  s         
    78      2.165987   6 C  s                33     -1.507757   3 C  s         
    52     -1.049800   4 C  px               77     -0.890394   6 C  s         
     2      0.842868   1 C  s                53     -0.840564   4 C  py        
   116     -0.778114  19 H  s                94      0.762074   8 H  s         

 Vector   58  Occ=0.000000D+00  E= 6.321846D-01
              MO Center=  3.0D-01, -1.4D-01, -1.5D-02, r^2= 8.2D+00
   Bfn.  Coefficient  Atom+Function         Bfn.  Coefficient  Atom+Function  
  ----- ------------  ---------------      ----- ------------  ---------------
     3      2.647248   1 C  s                33     -1.666506   3 C  s         
    53     -1.361779   4 C  py               82      1.068876   6 C  px        
     2     -0.929999   1 C  s                92     -0.877122   7 H  s         
    96     -0.849668   9 H  s                52     -0.778507   4 C  px        
   109     -0.734045  16 H  s                39     -0.717627   3 C  pz        

 Vector   59  Occ=0.000000D+00  E= 6.368169D-01
              MO Center= -1.7D-01, -4.4D-01,  4.9D-02, r^2= 6.7D+00
   Bfn.  Coefficient  Atom+Function         Bfn.  Coefficient  Atom+Function  
  ----- ------------  ---------------      ----- ------------  ---------------
    48      3.251647   4 C  s                78     -2.415927   6 C  s         
     3      1.837424   1 C  s                33     -1.278203   3 C  s         
    52     -1.200691   4 C  px               63      1.148393   5 C  s         
   104     -1.071243  13 H  s               102      1.020075  12 H  s         
    92     -0.985959   7 H  s                39     -0.907318   3 C  pz        

 Vector   60  Occ=0.000000D+00  E= 6.492658D-01
              MO Center= -3.8D-01, -1.4D+00,  1.5D-03, r^2= 7.4D+00
   Bfn.  Coefficient  Atom+Function         Bfn.  Coefficient  Atom+Function  
  ----- ------------  ---------------      ----- ------------  ---------------
    94      1.568122   8 H  s                 7      1.392247   1 C  px        
    63     -1.070160   5 C  s                78      1.039684   6 C  s         
    48     -0.855105   4 C  s                96     -0.851966   9 H  s         
     4     -0.827233   1 C  px               52      0.700095   4 C  px        
   106      0.614729  14 H  s                39     -0.586172   3 C  pz        

 Vector   61  Occ=0.000000D+00  E= 6.550921D-01
              MO Center=  1.8D-01,  4.5D-01,  2.7D-01, r^2= 6.9D+00
   Bfn.  Coefficient  Atom+Function         Bfn.  Coefficient  Atom+Function  
  ----- ------------  ---------------      ----- ------------  ---------------
    48      2.849689   4 C  s                63     -1.539759   5 C  s         
   104     -1.372201  13 H  s               108      1.080988  15 H  s         
    78     -1.051510   6 C  s                38     -0.782492   3 C  py        
     9      0.723881   1 C  pz               92      0.688020   7 H  s         
    54      0.679886   4 C  pz              112      0.634349  17 H  s         

 Vector   62  Occ=0.000000D+00  E= 6.578226D-01
              MO Center= -2.1D-01, -8.5D-01, -8.8D-02, r^2= 9.0D+00
   Bfn.  Coefficient  Atom+Function         Bfn.  Coefficient  Atom+Function  
  ----- ------------  ---------------      ----- ------------  ---------------
    96      1.364097   9 H  s               112      1.058831  17 H  s         
    33      1.035458   3 C  s                 9     -0.844957   1 C  pz        
     3     -0.836002   1 C  s                 8      0.822699   1 C  py        
    92     -0.772682   7 H  s                 7     -0.722212   1 C  px        
    18     -0.609921   2 N  s                78     -0.600678   6 C  s         

 Vector   63  Occ=0.000000D+00  E= 6.655725D-01
              MO Center=  5.6D-02,  7.6D-01,  8.6D-02, r^2= 6.5D+00
   Bfn.  Coefficient  Atom+Function         Bfn.  Coefficient  Atom+Function  
  ----- ------------  ---------------      ----- ------------  ---------------
    52      1.206500   4 C  px               67      1.143991   5 C  px        
   110     -1.015352  16 H  s                33     -0.945006   3 C  s         
   108     -0.727154  15 H  s               102      0.720619  12 H  s         
    94     -0.715841   8 H  s               112      0.686736  17 H  s         
    84     -0.610537   6 C  pz              114      0.592671  18 H  s         

 Vector   64  Occ=0.000000D+00  E= 6.731089D-01
              MO Center= -1.9D-01,  1.2D+00, -3.6D-01, r^2= 7.4D+00
   Bfn.  Coefficient  Atom+Function         Bfn.  Coefficient  Atom+Function  
  ----- ------------  ---------------      ----- ------------  ---------------
    78      2.495278   6 C  s                63     -1.750736   5 C  s         
   116     -1.396984  19 H  s               106      1.194982  14 H  s         
     3      1.160384   1 C  s               114     -1.016564  18 H  s         
    83      0.960470   6 C  py               77     -0.875019   6 C  s         
    33     -0.790638   3 C  s                94     -0.748514   8 H  s         

 Vector   65  Occ=0.000000D+00  E= 6.760358D-01
              MO Center= -4.5D-01, -2.3D-01, -5.4D-01, r^2= 7.6D+00
   Bfn.  Coefficient  Atom+Function         Bfn.  Coefficient  Atom+Function  
  ----- ------------  ---------------      ----- ------------  ---------------
    33      2.286306   3 C  s               100     -1.487428  11 H  s         
    78     -1.429051   6 C  s                92      1.154875   7 H  s         
   116      1.017245  19 H  s                48     -0.977964   4 C  s         
     9      0.847005   1 C  pz              112      0.813201  17 H  s         
    39     -0.757792   3 C  pz               82      0.684122   6 C  px        

 Vector   66  Occ=0.000000D+00  E= 6.810161D-01
              MO Center=  5.3D-01, -4.4D-01, -1.4D-01, r^2= 6.8D+00
   Bfn.  Coefficient  Atom+Function         Bfn.  Coefficient  Atom+Function  
  ----- ------------  ---------------      ----- ------------  ---------------
     3      2.133671   1 C  s                63      1.906692   5 C  s         
   110     -1.304668  16 H  s                33     -0.916756   3 C  s         
    38     -0.853391   3 C  py               54     -0.819941   4 C  pz        
   106     -0.810031  14 H  s                68     -0.761586   5 C  py        
   100      0.718313  11 H  s                92     -0.656239   7 H  s         

 Vector   67  Occ=0.000000D+00  E= 6.916292D-01
              MO Center=  1.7D-01,  3.8D-01,  6.9D-02, r^2= 6.0D+00
   Bfn.  Coefficient  Atom+Function         Bfn.  Coefficient  Atom+Function  
  ----- ------------  ---------------      ----- ------------  ---------------
    78      1.292070   6 C  s               106      0.885956  14 H  s         
    54      0.872102   4 C  pz              104     -0.725954  13 H  s         
    18      0.711093   2 N  s                98     -0.694658  10 H  s         
    48      0.682785   4 C  s               114     -0.581739  18 H  s         
     3      0.560643   1 C  s                84      0.539480   6 C  pz        

 Vector   68  Occ=0.000000D+00  E= 7.040850D-01
              MO Center=  1.5D-01,  2.7D-01,  1.5D-01, r^2= 7.5D+00
   Bfn.  Coefficient  Atom+Function         Bfn.  Coefficient  Atom+Function  
  ----- ------------  ---------------      ----- ------------  ---------------
    48      1.806662   4 C  s                33     -1.000048   3 C  s         
   114     -0.872458  18 H  s                83      0.842973   6 C  py        
    38      0.828263   3 C  py              104     -0.700129  13 H  s         
    53      0.651540   4 C  py               47     -0.598608   4 C  s         
    98      0.596230  10 H  s                95      0.582345   9 H  s         

 Vector   69  Occ=0.000000D+00  E= 7.133951D-01
              MO Center=  3.1D-02,  1.1D+00,  7.9D-02, r^2= 6.0D+00
   Bfn.  Coefficient  Atom+Function         Bfn.  Coefficient  Atom+Function  
  ----- ------------  ---------------      ----- ------------  ---------------
    63      2.077100   5 C  s                69      1.118715   5 C  pz        
    52     -1.096907   4 C  px               78     -0.992662   6 C  s         
   108     -0.962645  15 H  s                33      0.950661   3 C  s         
    48      0.933005   4 C  s               114      0.895053  18 H  s         
   102     -0.742303  12 H  s               110     -0.643343  16 H  s         

 Vector   70  Occ=0.000000D+00  E= 7.140834D-01
              MO Center=  2.4D-01,  9.0D-01, -1.9D-01, r^2= 5.7D+00
   Bfn.  Coefficient  Atom+Function         Bfn.  Coefficient  Atom+Function  
  ----- ------------  ---------------      ----- ------------  ---------------
    39      1.259568   3 C  pz               68      1.249349   5 C  py        
   100      1.218321  11 H  s               110      1.200715  16 H  s         
    52      1.139424   4 C  px                3      0.863633   1 C  s         
    53      0.770394   4 C  py               69     -0.720767   5 C  pz        
    63     -0.711256   5 C  s                33      0.687936   3 C  s         

 Vector   71  Occ=0.000000D+00  E= 7.430727D-01
              MO Center=  5.0D-03,  2.1D-01,  4.8D-02, r^2= 5.5D+00
   Bfn.  Coefficient  Atom+Function         Bfn.  Coefficient  Atom+Function  
  ----- ------------  ---------------      ----- ------------  ---------------
    48      1.808747   4 C  s                54     -1.642524   4 C  pz        
    63     -1.519954   5 C  s                33     -1.166701   3 C  s         
   102      0.950443  12 H  s                78      0.840244   6 C  s         
    68      0.792499   5 C  py               53     -0.769164   4 C  py        
    98     -0.748265  10 H  s                52      0.731805   4 C  px        

 Vector   72  Occ=0.000000D+00  E= 7.739674D-01
              MO Center= -1.4D-01,  5.0D-01, -1.6D-01, r^2= 5.5D+00
   Bfn.  Coefficient  Atom+Function         Bfn.  Coefficient  Atom+Function  
  ----- ------------  ---------------      ----- ------------  ---------------
    48     -1.818648   4 C  s                37      1.776863   3 C  px        
    63      1.403054   5 C  s                78      1.328539   6 C  s         
    68      1.312787   5 C  py               83     -1.254442   6 C  py        
    18     -1.191279   2 N  s               102      1.103158  12 H  s         
    54      1.053539   4 C  pz              112     -1.058628  17 H  s         

 Vector   73  Occ=0.000000D+00  E= 8.400100D-01
              MO Center=  5.1D-01, -1.5D+00,  2.2D-01, r^2= 3.2D+00
   Bfn.  Coefficient  Atom+Function         Bfn.  Coefficient  Atom+Function  
  ----- ------------  ---------------      ----- ------------  ---------------
    18      1.642778   2 N  s                48     -1.097622   4 C  s         
    22      0.952963   2 N  px                7     -0.843495   1 C  px        
    39      0.749966   3 C  pz               98     -0.738625  10 H  s         
    17     -0.687806   2 N  s                19      0.670342   2 N  px        
    23     -0.638526   2 N  py               38      0.618588   3 C  py        

 Vector   74  Occ=0.000000D+00  E= 9.338942D-01
              MO Center= -4.5D-01, -5.1D-02, -6.2D-02, r^2= 6.0D+00
   Bfn.  Coefficient  Atom+Function         Bfn.  Coefficient  Atom+Function  
[...]
              MO Center= -6.6D-03, -1.7D+00, -1.1D-01, r^2= 4.0D+00
   Bfn.  Coefficient  Atom+Function         Bfn.  Coefficient  Atom+Function  
  ----- ------------  ---------------      ----- ------------  ---------------
    11      0.719500   1 C  dxy              12     -0.684380   1 C  dxz       
    18      0.609386   2 N  s                15     -0.595085   1 C  dzz       
    10      0.582179   1 C  dxx              93     -0.552884   8 H  s         
    91      0.435320   7 H  s                42     -0.411046   3 C  dxz       
     7     -0.385092   1 C  px               48      0.342532   4 C  s         

 Vector   97  Occ=0.000000D+00  E= 2.048137D+00
              MO Center=  2.5D-02,  1.2D-01, -1.6D-01, r^2= 3.5D+00
   Bfn.  Coefficient  Atom+Function         Bfn.  Coefficient  Atom+Function  
  ----- ------------  ---------------      ----- ------------  ---------------
    40      0.643056   3 C  dxx              74     -0.644532   5 C  dyz       
    45     -0.611695   3 C  dzz              42     -0.560655   3 C  dxz       
   101     -0.534471  12 H  s                99      0.526468  11 H  s         
    37     -0.471162   3 C  px              107      0.466908  15 H  s         
    68     -0.434837   5 C  py               71     -0.413065   5 C  dxy       

 Vector   98  Occ=0.000000D+00  E= 2.049682D+00
              MO Center= -3.5D-01, -5.8D-01, -9.6D-02, r^2= 6.1D+00
   Bfn.  Coefficient  Atom+Function         Bfn.  Coefficient  Atom+Function  
  ----- ------------  ---------------      ----- ------------  ---------------
    33      1.154177   3 C  s                48     -1.125670   4 C  s         
    18     -0.922127   2 N  s                11      0.738548   1 C  dxy       
    86     -0.687824   6 C  dxy              14      0.594068   1 C  dyz       
    83     -0.522554   6 C  py               95      0.496292   9 H  s         
     8      0.469849   1 C  py               89     -0.467090   6 C  dyz       

 Vector   99  Occ=0.000000D+00  E= 2.071588D+00
              MO Center=  2.4D-01,  1.7D+00, -1.3D-01, r^2= 2.9D+00
   Bfn.  Coefficient  Atom+Function         Bfn.  Coefficient  Atom+Function  
  ----- ------------  ---------------      ----- ------------  ---------------
    71      1.017494   5 C  dxy              87     -0.799356   6 C  dxz       
    74      0.649990   5 C  dyz             109      0.631243  16 H  s         
    68      0.598839   5 C  py               85      0.598962   6 C  dxx       
   111     -0.587091  17 H  s                82     -0.461044   6 C  px        
    90     -0.391613   6 C  dzz              75      0.385481   5 C  dzz       

 Vector  100  Occ=0.000000D+00  E= 2.073055D+00
              MO Center=  5.3D-02,  1.3D+00, -1.7D-01, r^2= 3.6D+00
   Bfn.  Coefficient  Atom+Function         Bfn.  Coefficient  Atom+Function  
  ----- ------------  ---------------      ----- ------------  ---------------
    75      0.661088   5 C  dzz              89     -0.628664   6 C  dyz       
    90      0.607637   6 C  dzz              54     -0.482535   4 C  pz        
    88     -0.474696   6 C  dyy             105     -0.435971  14 H  s         
   115     -0.437649  19 H  s               113      0.361177  18 H  s         
    70     -0.337137   5 C  dxx              45      0.331342   3 C  dzz       

 Vector  101  Occ=0.000000D+00  E= 2.281868D+00
              MO Center=  1.5D-01,  4.4D-01,  5.9D-02, r^2= 4.0D+00
   Bfn.  Coefficient  Atom+Function         Bfn.  Coefficient  Atom+Function  
  ----- ------------  ---------------      ----- ------------  ---------------
    27      0.789061   2 N  dxz              57     -0.779312   4 C  dxz       
    18      0.592798   2 N  s                38      0.545893   3 C  py        
    88      0.487104   6 C  dyy              75      0.483937   5 C  dzz       
    72     -0.472532   5 C  dxz              52      0.456864   4 C  px        
    48     -0.418070   4 C  s                11      0.384736   1 C  dxy       

 Vector  102  Occ=0.000000D+00  E= 2.341861D+00
              MO Center=  6.4D-02,  8.1D-01,  6.9D-02, r^2= 2.8D+00
   Bfn.  Coefficient  Atom+Function         Bfn.  Coefficient  Atom+Function  
  ----- ------------  ---------------      ----- ------------  ---------------
    48      1.041872   4 C  s                59      0.961722   4 C  dyz       
    71     -0.914569   5 C  dxy              33     -0.800182   3 C  s         
    53     -0.672185   4 C  py               41     -0.579306   3 C  dxy       
    38     -0.515171   3 C  py               87     -0.501254   6 C  dxz       
    60     -0.476784   4 C  dzz              57     -0.439701   4 C  dxz       

 Vector  103  Occ=0.000000D+00  E= 2.352210D+00
              MO Center=  1.3D-01,  8.9D-01,  9.6D-02, r^2= 2.8D+00
   Bfn.  Coefficient  Atom+Function         Bfn.  Coefficient  Atom+Function  
  ----- ------------  ---------------      ----- ------------  ---------------
    48      1.769401   4 C  s                78     -0.797553   6 C  s         
    63     -0.788985   5 C  s                60     -0.683253   4 C  dzz       
    59     -0.577026   4 C  dyz              54     -0.572608   4 C  pz        
    86      0.538994   6 C  dxy              70     -0.483712   5 C  dxx       
    67      0.477567   5 C  px               72      0.474294   5 C  dxz       

 Vector  104  Occ=0.000000D+00  E= 2.464270D+00
              MO Center= -7.1D-02, -3.2D-01,  1.3D-01, r^2= 3.8D+00
   Bfn.  Coefficient  Atom+Function         Bfn.  Coefficient  Atom+Function  
  ----- ------------  ---------------      ----- ------------  ---------------
    78     -0.927423   6 C  s                29      0.909803   2 N  dyz       
    18      0.670546   2 N  s                56     -0.669048   4 C  dxy       
    86      0.633422   6 C  dxy              27      0.620387   2 N  dxz       
    53      0.606971   4 C  py               48      0.530585   4 C  s         
    83      0.470923   6 C  py               55      0.405725   4 C  dxx       

 Vector  105  Occ=0.000000D+00  E= 2.481663D+00
              MO Center=  1.1D-01, -9.3D-01,  1.7D-01, r^2= 1.9D+00
   Bfn.  Coefficient  Atom+Function         Bfn.  Coefficient  Atom+Function  
  ----- ------------  ---------------      ----- ------------  ---------------
    18      1.339727   2 N  s                33     -1.235492   3 C  s         
    27      0.815204   2 N  dxz              63      0.739664   5 C  s         
    29     -0.708781   2 N  dyz              52     -0.697082   4 C  px        
    78     -0.696432   6 C  s                44     -0.691493   3 C  dyz       
    48      0.586298   4 C  s                25     -0.582467   2 N  dxx       

 Vector  106  Occ=0.000000D+00  E= 2.504414D+00
              MO Center=  1.0D-01, -7.7D-01,  1.7D-01, r^2= 3.0D+00
   Bfn.  Coefficient  Atom+Function         Bfn.  Coefficient  Atom+Function  
  ----- ------------  ---------------      ----- ------------  ---------------
    18      0.800260   2 N  s                56      0.761758   4 C  dxy       
    26     -0.740629   2 N  dxy              33     -0.709419   3 C  s         
    29      0.687354   2 N  dyz              11     -0.601006   1 C  dxy       
    25     -0.521879   2 N  dxx              30      0.441404   2 N  dzz       
    42     -0.412189   3 C  dxz              71      0.399762   5 C  dxy       

 Vector  107  Occ=0.000000D+00  E= 2.588996D+00
              MO Center=  2.2D-01,  1.0D+00,  9.9D-02, r^2= 2.3D+00
   Bfn.  Coefficient  Atom+Function         Bfn.  Coefficient  Atom+Function  
  ----- ------------  ---------------      ----- ------------  ---------------
    52      1.327866   4 C  px               63     -1.320633   5 C  s         
    78      1.071194   6 C  s                33      0.942035   3 C  s         
    57     -0.883912   4 C  dxz              67      0.775952   5 C  px        
    56      0.754161   4 C  dxy              72      0.733897   5 C  dxz       
    58     -0.705532   4 C  dyy              86     -0.691342   6 C  dxy       

 Vector  108  Occ=0.000000D+00  E= 2.669335D+00
              MO Center= -4.5D-02, -5.2D-01,  1.5D-01, r^2= 2.6D+00
   Bfn.  Coefficient  Atom+Function         Bfn.  Coefficient  Atom+Function  
  ----- ------------  ---------------      ----- ------------  ---------------
    33      1.845869   3 C  s                18     -1.260961   2 N  s         
    53      0.937531   4 C  py               56     -0.931673   4 C  dxy       
    48     -0.836309   4 C  s                24      0.786127   2 N  pz        
    27     -0.756292   2 N  dxz               3      0.667937   1 C  s         
    43      0.657813   3 C  dyy              30      0.617871   2 N  dzz       

 Vector  109  Occ=0.000000D+00  E= 2.832663D+00
              MO Center=  8.1D-02, -1.1D+00,  1.7D-01, r^2= 2.1D+00
   Bfn.  Coefficient  Atom+Function         Bfn.  Coefficient  Atom+Function  
  ----- ------------  ---------------      ----- ------------  ---------------
    18      1.576281   2 N  s                28      0.926580   2 N  dyy       
    56     -0.668738   4 C  dxy              78     -0.662395   6 C  s         
    30     -0.647460   2 N  dzz              41      0.633687   3 C  dxy       
    11     -0.613640   1 C  dxy              38      0.588132   3 C  py        
     3     -0.510417   1 C  s                37     -0.468276   3 C  px        

 Vector  110  Occ=0.000000D+00  E= 2.985746D+00
              MO Center=  7.9D-02, -1.2D+00,  1.5D-01, r^2= 1.7D+00
   Bfn.  Coefficient  Atom+Function         Bfn.  Coefficient  Atom+Function  
  ----- ------------  ---------------      ----- ------------  ---------------
    26     -1.567267   2 N  dxy              23      1.487473   2 N  py        
     3      1.078061   1 C  s                33     -1.062098   3 C  s         
    41      1.017768   3 C  dxy              29     -0.975312   2 N  dyz       
    38      0.882000   3 C  py                8      0.622622   1 C  py        
    78     -0.616478   6 C  s                44      0.509790   3 C  dyz       

 Vector  111  Occ=0.000000D+00  E= 4.822324D+00
              MO Center=  2.8D-02,  1.2D+00,  2.5D-02, r^2= 2.0D+00
   Bfn.  Coefficient  Atom+Function         Bfn.  Coefficient  Atom+Function  
  ----- ------------  ---------------      ----- ------------  ---------------
    47      2.291349   4 C  s                62      2.119370   5 C  s         
    77      2.121105   6 C  s                32      1.558592   3 C  s         
    60     -1.108543   4 C  dzz              58     -1.041834   4 C  dyy       
    55     -1.013905   4 C  dxx              73     -0.943902   5 C  dyy       
    90     -0.939026   6 C  dzz              75     -0.929488   5 C  dzz       

 Vector  112  Occ=0.000000D+00  E= 4.929639D+00
              MO Center= -7.3D-02, -2.6D+00, -1.4D-01, r^2= 1.1D+00
   Bfn.  Coefficient  Atom+Function         Bfn.  Coefficient  Atom+Function  
  ----- ------------  ---------------      ----- ------------  ---------------
     2      4.069778   1 C  s                13     -1.861005   1 C  dyy       
    10     -1.770658   1 C  dxx              15     -1.772498   1 C  dzz       
     1     -0.928470   1 C  s                62     -0.704564   5 C  s         
    18      0.601360   2 N  s                17      0.446069   2 N  s         
    32      0.386211   3 C  s                33     -0.382561   3 C  s         

 Vector  113  Occ=0.000000D+00  E= 4.951881D+00
              MO Center= -2.5D-02,  1.8D+00, -1.1D-01, r^2= 2.3D+00
   Bfn.  Coefficient  Atom+Function         Bfn.  Coefficient  Atom+Function  
  ----- ------------  ---------------      ----- ------------  ---------------
    77      3.191664   6 C  s                62     -2.657376   5 C  s         
    88     -1.447808   6 C  dyy              85     -1.429597   6 C  dxx       
    90     -1.403657   6 C  dzz              70      1.219347   5 C  dxx       
    75      1.175226   5 C  dzz              73      1.168386   5 C  dyy       
    76     -0.732832   6 C  s                61      0.610413   5 C  s         

 Vector  114  Occ=0.000000D+00  E= 4.986507D+00
              MO Center= -1.1D-01,  1.3D-01, -1.4D-01, r^2= 2.3D+00
   Bfn.  Coefficient  Atom+Function         Bfn.  Coefficient  Atom+Function  
  ----- ------------  ---------------      ----- ------------  ---------------
    32      3.370733   3 C  s                62     -1.974146   5 C  s         
    43     -1.593988   3 C  dyy              40     -1.517535   3 C  dxx       
    45     -1.498366   3 C  dzz              77     -1.065239   6 C  s         
    70      0.928179   5 C  dxx              75      0.872209   5 C  dzz       
    73      0.861013   5 C  dyy              31     -0.779434   3 C  s         

 Vector  115  Occ=0.000000D+00  E= 5.197090D+00
              MO Center= -4.1D-02,  9.8D-01,  1.7D-01, r^2= 1.4D+00
   Bfn.  Coefficient  Atom+Function         Bfn.  Coefficient  Atom+Function  
  ----- ------------  ---------------      ----- ------------  ---------------
    47      3.436482   4 C  s                32     -1.653088   3 C  s         
    55     -1.648752   4 C  dxx              58     -1.654492   4 C  dyy       
    60     -1.473421   4 C  dzz              77     -1.450609   6 C  s         
    62     -1.400353   5 C  s                43      0.850722   3 C  dyy       
    46     -0.773705   4 C  s                70      0.733747   5 C  dxx       

 Vector  116  Occ=0.000000D+00  E= 5.589685D+00
              MO Center=  2.8D-01, -1.4D+00,  2.7D-01, r^2= 7.2D-01
   Bfn.  Coefficient  Atom+Function         Bfn.  Coefficient  Atom+Function  
  ----- ------------  ---------------      ----- ------------  ---------------
    17      2.957111   2 N  s                28     -1.740987   2 N  dyy       
    18      1.671776   2 N  s                25     -1.639960   2 N  dxx       
    30     -1.587402   2 N  dzz              33     -1.062818   3 C  s         
    16      0.825372   2 N  s                32     -0.827111   3 C  s         
     2     -0.779094   1 C  s                 3     -0.606423   1 C  s         


 center of mass
 --------------
 x =   0.00993898 y =  -0.01428967 z =   0.01772830

 moments of inertia (a.u.)
 ------------------
        1007.693522802677          10.696826560818           4.539213062632
          10.696826560818         266.350445948324           2.884046615922
           4.539213062632           2.884046615922        1173.919122495967

     Multipole analysis of the density
     ---------------------------------

     L   x y z        total         alpha         beta         nuclear
     -   - - -        -----         -----         ----         -------
     0   0 0 0     -0.000000    -25.000000    -25.000000     50.000000

     1   1 0 0     -0.342555      0.035197      0.035197     -0.412950
     1   0 1 0     -0.107590     -0.274825     -0.274825      0.442061
     1   0 0 1      0.364009      0.089173      0.089173      0.185663

     2   2 0 0    -32.226788    -87.831924    -87.831924    143.437060
     2   1 1 0      0.433182      2.156400      2.156400     -3.879619
     2   1 0 1      0.476059      1.511693      1.511693     -2.547327
     2   0 2 0    -29.449401   -306.027550   -306.027550    582.605698
     2   0 1 1     -0.681643      0.430391      0.430391     -1.542424
     2   0 0 2    -28.890454    -36.201959    -36.201959     43.513463


 Parallel integral file used     489 records with       0 large values


 Task  times  cpu:       16.0s     wall:       16.0s


                                NWChem Input Module
                                -------------------


 Summary of allocated global arrays
-----------------------------------
  No active global arrays


MA_summarize_allocated_blocks: starting scan ...
MA_summarize_allocated_blocks: scan completed: 0 heap blocks, 0 stack blocks
MA usage statistics:

	allocation statistics:
					      heap	     stack
					      ----	     -----
	current number of blocks	         0	         0
	maximum number of blocks	        25	        61
	current total bytes		         0	         0
	maximum total bytes		 201595064	  84329416
	maximum total K-bytes		    201596	     84330
	maximum total M-bytes		       202	        85


                                     CITATION
                                     --------
                Please cite the following reference when publishing
                           results obtained with NWChem:

          E. Apra, E. J. Bylaska, W. A. de Jong, N. Govind, K. Kowalski,
       T. P. Straatsma, M. Valiev, H. J. J. van Dam, Y. Alexeev, J. Anchell,
       V. Anisimov, F. W. Aquino, R. Atta-Fynn, J. Autschbach, N. P. Bauman,
     J. C. Becca, D. E. Bernholdt, K. Bhaskaran-Nair, S. Bogatko, P. Borowski,
         J. Boschen, J. Brabec, A. Bruner, E. Cauet, Y. Chen, G. N. Chuev,
      C. J. Cramer, J. Daily, M. J. O. Deegan, T. H. Dunning Jr., M. Dupuis,
   K. G. Dyall, G. I. Fann, S. A. Fischer, A. Fonari, H. Fruchtl, L. Gagliardi,
      J. Garza, N. Gawande, S. Ghosh, K. Glaesemann, A. W. Gotz, J. Hammond,
       V. Helms, E. D. Hermes, K. Hirao, S. Hirata, M. Jacquelin, L. Jensen,
   B. G. Johnson, H. Jonsson, R. A. Kendall, M. Klemm, R. Kobayashi, V. Konkov,
      S. Krishnamoorthy, M. Krishnan, Z. Lin, R. D. Lins, R. J. Littlefield,
      A. J. Logsdail, K. Lopata, W. Ma, A. V. Marenich, J. Martin del Campo,
   D. Mejia-Rodriguez, J. E. Moore, J. M. Mullin, T. Nakajima, D. R. Nascimento,
    J. A. Nichols, P. J. Nichols, J. Nieplocha, A. Otero-de-la-Roza, B. Palmer,
    A. Panyala, T. Pirojsirikul, B. Peng, R. Peverati, J. Pittner, L. Pollack,
   R. M. Richard, P. Sadayappan, G. C. Schatz, W. A. Shelton, D. W. Silverstein,
   D. M. A. Smith, T. A. Soares, D. Song, M. Swart, H. L. Taylor, G. S. Thomas,
            V. Tipparaju, D. G. Truhlar, K. Tsemekhman, T. Van Voorhis,
      A. Vazquez-Mayagoitia, P. Verma, O. Villa, A. Vishnu, K. D. Vogiatzis,
        D. Wang, J. H. Weare, M. J. Williamson, T. L. Windus, K. Wolinski,
        A. T. Wong, Q. Wu, C. Yang, Q. Yu, M. Zacharias, Z. Zhang, Y. Zhao,
                                and R. J. Harrison
                        "NWChem: Past, present, and future
                         J. Chem. Phys. 152, 184102 (2020)
                               doi:10.1063/5.0004997

                                      AUTHORS
                                      -------
  E. Apra, E. J. Bylaska, N. Govind, K. Kowalski, M. Valiev, D. Mejia-Rodriguez,
       A. Kunitsa, N. P. Bauman, A. Panyala, W. A. de Jong, T. P. Straatsma,
   H. J. J. van Dam, D. Wang, T. L. Windus, J. Hammond, J. Autschbach, A. Woods,
    K. Bhaskaran-Nair, J. Brabec, K. Lopata, S. A. Fischer, S. Krishnamoorthy,
     M. Jacquelin, W. Ma, M. Klemm, O. Villa, Y. Chen, V. Anisimov, F. Aquino,
     S. Hirata, M. T. Hackler, E. Hermes, L. Jensen, J. E. Moore, J. C. Becca,
      V. Konjkov, T. Risthaus, M. Malagoli, A. Marenich, A. Otero-de-la-Roza,
        J. Mullin, P. Nichols, R. Peverati, J. Pittner, Y. Zhao, P.-D. Fan,
        A. Fonari, M. J. Williamson, R. J. Harrison, J. R. Rehr, M. Dupuis,
     D. Silverstein, D. M. A. Smith, J. Nieplocha, V. Tipparaju, M. Krishnan,
     B. E. Van Kuiken, A. Vazquez-Mayagoitia, M. Swart, Q. Wu, T. Van Voorhis,
     A. A. Auer, M. Nooijen, L. D. Crosby, E. Brown, G. Cisneros, G. I. Fann,
   H. Fruchtl, J. Garza, K. Hirao, R. A. Kendall, J. A. Nichols, K. Tsemekhman,
    K. Wolinski, J. Anchell, D. E. Bernholdt, P. Borowski, T. Clark, D. Clerc,
   H. Dachsel, M. J. O. Deegan, K. Dyall, D. Elwood, E. Glendening, M. Gutowski,
   A. C. Hess, J. Jaffe, B. G. Johnson, J. Ju, R. Kobayashi, R. Kutteh, Z. Lin,
   R. Littlefield, X. Long, B. Meng, T. Nakajima, S. Niu, L. Pollack, M. Rosing,
   K. Glaesemann, G. Sandrone, M. Stave, H. Taylor, G. Thomas, J. H. van Lenthe,
                               A. T. Wong, Z. Zhang.

 Total times  cpu:      418.7s     wall:      418.7s
