 argument  1 = trial1.nw
                                         
                                         


             Northwest Computational Chemistry Package (NWChem) 7.0.2
             --------------------------------------------------------


                    Environmental Molecular Sciences Laboratory
                       Pacific Northwest National Laboratory
                                Richland, WA 99352

                              Copyright (c) 1994-2020
                       Pacific Northwest National Laboratory
                            Battelle Memorial Institute

             NWChem is an open-source computational chemistry package
                        distributed under the terms of the
                      Educational Community License (ECL) 2.0
             A copy of the license is included with this distribution
                              in the LICENSE.TXT file

                                  ACKNOWLEDGMENT
                                  --------------

            This software and its documentation were developed at the
            EMSL at Pacific Northwest National Laboratory, a multiprogram
            national laboratory, operated for the U.S. Department of Energy
            by Battelle under Contract Number DE-AC05-76RL01830. Support
            for this work was provided by the Department of Energy Office
            of Biological and Environmental Research, Office of Basic
            Energy Sciences, and the Office of Advanced Scientific Computing.


           Job information
           ---------------

    hostname        = node-0
    program         = /usr/local/bin/nwchem-7.0.2/bin/LINUX64/nwchem
    date            = Tue Mar 12 23:43:23 2024

    compiled        = Fri_Feb_03_02:12:07_2023
    source          = /usr/local/bin/nwchem-7.0.2
    nwchem branch   = 7.0.2
    nwchem revision = b9985dfa
    ga revision     = 5.7.2
    use scalapack   = T
    input           = trial1.nw
    prefix          = degradation_start.
    data base       = ./degradation_start.db
    status          = startup
    nproc           =       31
    time left       =     -1s



           Memory information
           ------------------

    heap     =  229376000 doubles =   1750.0 Mbytes
    stack    =  229375997 doubles =   1750.0 Mbytes
    global   =  458752000 doubles =   3500.0 Mbytes (distinct from heap & stack)
    total    =  917503997 doubles =   7000.0 Mbytes
    verify   = yes
    hardfail = no 


           Directory information
           ---------------------

  0 permanent = .
  0 scratch   = .




                                NWChem Input Module
                                -------------------


                                    degradation
                                    -----------

 Scaling coordinates for geometry "geometry" by  1.889725989
 (inverse scale =  0.529177249)

 ORDER OF PRIMARY AXIS IS BEING SET TO 4
 D4H symmetry detected

          ------
          auto-z
          ------
  no constraints, skipping    0.0000000000000000     
  no constraints, skipping    0.0000000000000000     


                             Geometry "geometry" -> ""
                             -------------------------

 Output coordinates in angstroms (scale by  1.889725989 to convert to a.u.)

  No.       Tag          Charge          X              Y              Z
 ---- ---------------- ---------- -------------- -------------- --------------
    1 H                    1.0000     0.00000000     0.00000000    -0.35400000
    2 H                    1.0000     0.00000000     0.00000000     0.35400000

      Atomic Mass 
      ----------- 

      H                  1.007825


 Effective nuclear repulsion energy (a.u.)       0.7474254929

            Nuclear Dipole moment (a.u.) 
            ----------------------------
        X                 Y               Z
 ---------------- ---------------- ----------------
     0.0000000000     0.0000000000     0.0000000000

      Symmetry information
      --------------------

 Group name             D4h       
 Group number             28
 Group order              16
 No. of unique centers     1

      Symmetry unique atoms

     1



                                Z-matrix (autoz)
                                -------- 

 Units are Angstrom for bonds and degrees for angles

      Type          Name      I     J     K     L     M      Value
      ----------- --------  ----- ----- ----- ----- ----- ----------
    1 Stretch                  1     2                       0.70800


            XYZ format geometry
            -------------------
     2
 geometry
 H                     0.00000000     0.00000000    -0.35400000
 H                     0.00000000     0.00000000     0.35400000



 Summary of "ao basis" -> "" (cartesian)
 ------------------------------------------------------------------------------
       Tag                 Description            Shells   Functions and Types
 ---------------- ------------------------------  ------  ---------------------
 *                          6-311g*                   on all atoms 




                           NWChem Geometry Optimization
                           ----------------------------




                                    degradation


  no constraints, skipping    0.0000000000000000     
 maximum gradient threshold         (gmax) =   0.000450
 rms gradient threshold             (grms) =   0.000300
 maximum cartesian step threshold   (xmax) =   0.001800
 rms cartesian step threshold       (xrms) =   0.001200
 fixed trust radius                (trust) =   0.300000
 maximum step size to saddle      (sadstp) =   0.100000
 energy precision                  (eprec) =   5.0D-06
 maximum number of steps          (nptopt) =  300
 initial hessian option           (inhess) =    0
 line search option               (linopt) =    1
 hessian update option            (modupd) =    1
 saddle point option              (modsad) =    0
 initial eigen-mode to follow     (moddir) =    0
 initial variable to follow       (vardir) =    0
 follow first negative mode     (firstneg) =    T
 apply conjugacy                    (opcg) =    F
 source of zmatrix                         =   autoz   


          -------------------
          Energy Minimization
          -------------------


 Names of Z-matrix variables 
    1         

 Variables with the same non-blank name are constrained to be equal


 Using diagonal initial Hessian 
 Scaling for Hessian diagonals: bonds = 1.00  angles = 0.25  torsions = 0.10

          --------
          Step   0
          --------


                         Geometry "geometry" -> "geometry"
                         ---------------------------------

 Output coordinates in angstroms (scale by  1.889725989 to convert to a.u.)

  No.       Tag          Charge          X              Y              Z
 ---- ---------------- ---------- -------------- -------------- --------------
    1 H                    1.0000     0.00000000     0.00000000    -0.35400000
    2 H                    1.0000     0.00000000     0.00000000     0.35400000

      Atomic Mass 
      ----------- 

      H                  1.007825


 Effective nuclear repulsion energy (a.u.)       0.7474254929

            Nuclear Dipole moment (a.u.) 
            ----------------------------
        X                 Y               Z
 ---------------- ---------------- ----------------
     0.0000000000     0.0000000000     0.0000000000

      Symmetry information
      --------------------

 Group name             D4h       
 Group number             28
 Group order              16
 No. of unique centers     1

      Symmetry unique atoms

     1


                                 NWChem DFT Module
                                 -----------------


                                    degradation


                      Basis "ao basis" -> "ao basis" (cartesian)
                      -----
  H (Hydrogen)
  ------------
            Exponent  Coefficients 
       -------------- ---------------------------------------------------------
  1 S  3.38650000E+01  0.025494
  1 S  5.09479000E+00  0.190373
  1 S  1.15879000E+00  0.852161

  2 S  3.25840000E-01  1.000000

  3 S  1.02741000E-01  1.000000



 Summary of "ao basis" -> "ao basis" (cartesian)
 ------------------------------------------------------------------------------
       Tag                 Description            Shells   Functions and Types
 ---------------- ------------------------------  ------  ---------------------
 H                          6-311g*                  3        3   3s




 Summary of "ao basis" -> "ao basis" (cartesian)
 ------------------------------------------------------------------------------
       Tag                 Description            Shells   Functions and Types
 ---------------- ------------------------------  ------  ---------------------
 H                          6-311g*                  3        3   3s


      Symmetry analysis of basis
      --------------------------

        a1g         3
        a1u         0
        a2g         0
        a2u         3
        b1g         0
        b1u         0
        b2g         0
        b2u         0
        eg          0
        eu          0

  Caching 1-el integrals 

            General Information
            -------------------
          SCF calculation type: DFT
          Wavefunction type:  closed shell.
          No. of atoms     :     2
          No. of electrons :     2
           Alpha electrons :     1
            Beta electrons :     1
          Charge           :     0
          Spin multiplicity:     1
          Use of symmetry is: on ; symmetry adaption is: on 
          Maximum number of iterations:  30
          AO basis - number of functions:     6
                     number of shells:     6
          Convergence on energy requested:  1.00D-06
          Convergence on density requested:  1.00D-05
          Convergence on gradient requested:  5.00D-04

              XC Information
              --------------
                         B3LYP Method XC Potential
                     Hartree-Fock (Exact) Exchange  0.200          
                        Slater Exchange Functional  0.800 local    
                    Becke 1988 Exchange Functional  0.720 non-local
              Lee-Yang-Parr Correlation Functional  0.810          
                  VWN I RPA Correlation Functional  0.190 local    

             Grid Information
             ----------------
          Grid used for XC integration:  fine      
          Radial quadrature: Mura-Knowles        
          Angular quadrature: Lebedev. 
          Tag              B.-S. Rad. Rad. Pts. Rad. Cut. Ang. Pts.
          ---              ---------- --------- --------- ---------
          H                   0.35       60           6.0       590
          Grid pruning is: on 
          Number of quadrature shells:    60
          Spatial weights used:  Erf1

          Convergence Information
          -----------------------
          Convergence aids based upon iterative change in 
          total energy or number of iterations. 
          Levelshifting, if invoked, occurs when the 
          HOMO/LUMO gap drops below (HL_TOL):  1.00D-02
          DIIS, if invoked, will attempt to extrapolate 
          using up to (NFOCK): 10 stored Fock matrices.

                    Damping( 0%)  Levelshifting(0.5)       DIIS
                  --------------- ------------------- ---------------
          dE  on:    start            ASAP                start   
          dE off:    2 iters         30 iters            30 iters 


      Screening Tolerance Information
      -------------------------------
          Density screening/tol_rho:  1.00D-10
          AO Gaussian exp screening on grid/accAOfunc:  14
          CD Gaussian exp screening on grid/accCDfunc:  20
          XC Gaussian exp screening on grid/accXCfunc:  20
          Schwarz screening/accCoul:  1.00D-08

      Dispersion Parameters
      ---------------------

           DFT-D3BJ Model   
          s6 scale factor  :        1.000000000000
          s8 scale factor  :        1.988900000000
          a1 parameter     :        0.398100000000
          a2 parameter     :        4.421100000000
              vdW contrib  :       -0.000139186549


      Superposition of Atomic Density Guess
      -------------------------------------

 Sum of atomic energies:          -0.99961840

      Non-variational initial energy
      ------------------------------

 Total energy =      -0.852401
 1-e energy   =      -2.253971
 2-e energy   =       0.654144
 HOMO         =      -0.600303
 LUMO         =       0.131805


      Symmetry analysis of molecular orbitals - initial
      -------------------------------------------------

  Numbering of irreducible representations: 

     1 a1g         2 a1u         3 a2g         4 a2u         5 b1g     
     6 b1u         7 b2g         8 b2u         9 eg         10 eu      

  Orbital symmetries:

     1 a1g         2 a2u         3 a1g         4 a2u         5 a1g     
     6 a2u     

   Time after variat. SCF:      0.2
   Time prior to 1st pass:      0.2

 #quartets = 1.560D+02 #integrals = 1.560D+02 #direct =  0.0% #cached =100.0%


 Integral file          = ./degradation_start.aoints.00
 Record size in doubles =  65536        No. of integs per rec  =  43688
 Max. records in memory =      1        Max. records in file   = 119598
 No. of bits per label  =      8        No. of bits per value  =     64


File balance: exchanges=     0  moved=     0  time=   0.0


           Memory utilization after 1st SCF pass: 
           Heap Space remaining (MW):      229.31           229309680
          Stack Space remaining (MW):      229.38           229375820

   convergence    iter        energy       DeltaE   RMS-Dens  Diis-err    time
 ---------------- ----- ----------------- --------- --------- ---------  ------
 d= 0,ls=0.0,diis     1     -1.1738553569 -1.92D+00  9.12D-03  1.56D-02     0.4
 d= 0,ls=0.0,diis     2     -1.1758911204 -2.04D-03  1.97D-03  2.90D-04     0.4
 d= 0,ls=0.0,diis     3     -1.1759568696 -6.57D-05  7.04D-05  1.29D-06     0.5
 d= 0,ls=0.0,diis     4     -1.1759570443 -1.75D-07  1.70D-07  5.31D-12     0.5


         Total DFT energy =       -1.175957044334
      One electron energy =       -2.538638653416
           Coulomb energy =        1.328344612673
    Exchange-Corr. energy =       -0.712949309979
 Nuclear repulsion energy =        0.747425492937

    Dispersion correction =       -0.000139186549

 Numeric. integr. density =        1.999999983050

     Total iterative time =      0.3s



                  Occupations of the irreducible representations
                  ----------------------------------------------

                     irrep           alpha         beta
                     --------     --------     --------
                     a1g               1.0          1.0
                     a1u               0.0          0.0
                     a2g               0.0          0.0
                     a2u               0.0          0.0
                     b1g               0.0          0.0
                     b1u               0.0          0.0
                     b2g               0.0          0.0
                     b2u               0.0          0.0
                     eg                0.0          0.0
                     eu                0.0          0.0


                       DFT Final Molecular Orbital Analysis
                       ------------------------------------

 Vector    1  Occ=2.000000D+00  E=-4.440229D-01  Symmetry=a1g
              MO Center=  0.0D+00,  0.0D+00,  1.8D-16, r^2= 7.2D-01
   Bfn.  Coefficient  Atom+Function         Bfn.  Coefficient  Atom+Function  
  ----- ------------  ---------------      ----- ------------  ---------------
     2      0.276245  1 H  s                  5      0.276245  2 H  s          
     1      0.207219  1 H  s                  4      0.207219  2 H  s          
     3      0.132333  1 H  s                  6      0.132333  2 H  s          

 Vector    2  Occ=0.000000D+00  E= 6.565944D-02  Symmetry=a2u
              MO Center=  0.0D+00,  0.0D+00,  5.0D-16, r^2= 3.0D+00
   Bfn.  Coefficient  Atom+Function         Bfn.  Coefficient  Atom+Function  
  ----- ------------  ---------------      ----- ------------  ---------------
     3      2.135019  1 H  s                  6     -2.135019  2 H  s          
     2      0.132841  1 H  s                  5     -0.132841  2 H  s          
     1      0.095153  1 H  s                  4     -0.095153  2 H  s          

 Vector    3  Occ=0.000000D+00  E= 1.941779D-01  Symmetry=a1g
              MO Center=  0.0D+00,  0.0D+00, -9.2D-17, r^2= 3.2D+00
   Bfn.  Coefficient  Atom+Function         Bfn.  Coefficient  Atom+Function  
  ----- ------------  ---------------      ----- ------------  ---------------
     3      0.828657  1 H  s                  6      0.828657  2 H  s          
     2     -0.666655  1 H  s                  5     -0.666655  2 H  s          
     1     -0.080775  1 H  s                  4     -0.080775  2 H  s          

 Vector    4  Occ=0.000000D+00  E= 4.897637D-01  Symmetry=a2u
              MO Center=  0.0D+00,  0.0D+00, -8.9D-16, r^2= 2.5D+00
   Bfn.  Coefficient  Atom+Function         Bfn.  Coefficient  Atom+Function  
  ----- ------------  ---------------      ----- ------------  ---------------
     3      2.465205  1 H  s                  6     -2.465205  2 H  s          
     2     -1.732342  1 H  s                  5      1.732342  2 H  s          
     1     -0.122267  1 H  s                  4      0.122267  2 H  s          

 Vector    5  Occ=0.000000D+00  E= 2.062757D+00  Symmetry=a1g
              MO Center=  0.0D+00,  0.0D+00, -6.5D-16, r^2= 1.2D+00
   Bfn.  Coefficient  Atom+Function         Bfn.  Coefficient  Atom+Function  
  ----- ------------  ---------------      ----- ------------  ---------------
     2      1.234105  1 H  s                  5      1.234105  2 H  s          
     1     -1.065097  1 H  s                  4     -1.065097  2 H  s          
     3     -0.508095  1 H  s                  6     -0.508095  2 H  s          

 Vector    6  Occ=0.000000D+00  E= 2.430560D+00  Symmetry=a2u
              MO Center=  0.0D+00,  0.0D+00,  6.3D-16, r^2= 9.7D-01
   Bfn.  Coefficient  Atom+Function         Bfn.  Coefficient  Atom+Function  
  ----- ------------  ---------------      ----- ------------  ---------------
     2      1.895636  1 H  s                  5     -1.895636  2 H  s          
     3     -1.305685  1 H  s                  6      1.305685  2 H  s          
     1     -1.139837  1 H  s                  4      1.139837  2 H  s          


 center of mass
 --------------
 x =   0.00000000 y =   0.00000000 z =   0.00000000

 moments of inertia (a.u.)
 ------------------
           0.902026545525           0.000000000000           0.000000000000
           0.000000000000           0.902026545525           0.000000000000
           0.000000000000           0.000000000000           0.000000000000

     Multipole analysis of the density
     ---------------------------------

     L   x y z        total         alpha         beta         nuclear
     -   - - -        -----         -----         ----         -------
     0   0 0 0     -0.000000     -1.000000     -1.000000      2.000000

     1   1 0 0      0.000000      0.000000      0.000000      0.000000
     1   0 1 0      0.000000      0.000000      0.000000      0.000000
     1   0 0 1      0.000000      0.000000      0.000000      0.000000

     2   2 0 0     -1.501062     -0.750531     -0.750531      0.000000
     2   1 1 0      0.000000      0.000000      0.000000      0.000000
     2   1 0 1      0.000000      0.000000      0.000000      0.000000
     2   0 2 0     -1.501062     -0.750531     -0.750531      0.000000
     2   0 1 1      0.000000      0.000000      0.000000      0.000000
     2   0 0 2     -1.215660     -1.055342     -1.055342      0.895023


 Parallel integral file used      31 records with       0 large values


            General Information
            -------------------
          SCF calculation type: DFT
          Wavefunction type:  closed shell.
          No. of atoms     :     2
          No. of electrons :     2
           Alpha electrons :     1
            Beta electrons :     1
          Charge           :     0
          Spin multiplicity:     1
          Use of symmetry is: on ; symmetry adaption is: on 
          Maximum number of iterations:  30
          AO basis - number of functions:     6
                     number of shells:     6
          Convergence on energy requested:  1.00D-06
          Convergence on density requested:  1.00D-05
          Convergence on gradient requested:  5.00D-04

              XC Information
              --------------
                         B3LYP Method XC Potential
                     Hartree-Fock (Exact) Exchange  0.200          
                        Slater Exchange Functional  0.800 local    
                    Becke 1988 Exchange Functional  0.720 non-local
              Lee-Yang-Parr Correlation Functional  0.810          
                  VWN I RPA Correlation Functional  0.190 local    

             Grid Information
             ----------------
          Grid used for XC integration:  fine      
          Radial quadrature: Mura-Knowles        
          Angular quadrature: Lebedev. 
          Tag              B.-S. Rad. Rad. Pts. Rad. Cut. Ang. Pts.
          ---              ---------- --------- --------- ---------
          H                   0.35       60           6.0       590
          Grid pruning is: on 
          Number of quadrature shells:    60
          Spatial weights used:  Erf1

          Convergence Information
          -----------------------
          Convergence aids based upon iterative change in 
          total energy or number of iterations. 
          Levelshifting, if invoked, occurs when the 
          HOMO/LUMO gap drops below (HL_TOL):  1.00D-02
          DIIS, if invoked, will attempt to extrapolate 
          using up to (NFOCK): 10 stored Fock matrices.

                    Damping( 0%)  Levelshifting(0.5)       DIIS
                  --------------- ------------------- ---------------
          dE  on:    start            ASAP                start   
          dE off:    2 iters         30 iters            30 iters 


      Screening Tolerance Information
      -------------------------------
          Density screening/tol_rho:  1.00D-10
          AO Gaussian exp screening on grid/accAOfunc:  14
          CD Gaussian exp screening on grid/accCDfunc:  20
          XC Gaussian exp screening on grid/accXCfunc:  20
          Schwarz screening/accCoul:  1.00D-08



                            NWChem DFT Gradient Module
                            --------------------------


                                    degradation



  charge          =   0.00
  wavefunction    = closed shell

  Using symmetry


                         DFT ENERGY GRADIENTS

    atom               coordinates                        gradient
                 x          y          z           x          y          z
   1 H       0.000000   0.000000  -0.668963    0.000000   0.000000   0.026399
   2 H       0.000000   0.000000   0.668963    0.000000   0.000000  -0.026399

                 ----------------------------------------
                 |  Time  |  1-e(secs)   |  2-e(secs)   |
                 ----------------------------------------
                 |  CPU   |       0.00   |       0.00   |
                 ----------------------------------------
                 |  WALL  |       0.00   |       0.00   |
                 ----------------------------------------
  no constraints, skipping    0.0000000000000000     

@ Step       Energy      Delta E   Gmax     Grms     Xrms     Xmax   Walltime
@ ---- ---------------- -------- -------- -------- -------- -------- --------
@    0      -1.17595704  0.0D+00  0.02640  0.02640  0.00000  0.00000      0.6
                                                                    



                                Z-matrix (autoz)
                                -------- 

 Units are Angstrom for bonds and degrees for angles

      Type          Name      I     J     K     L     M      Value     Gradient
      ----------- --------  ----- ----- ----- ----- ----- ---------- ----------
    1 Stretch                  1     2                       0.70800   -0.02640

  no constraints, skipping    0.0000000000000000     
  no constraints, skipping    0.0000000000000000     
  no constraints, skipping    0.0000000000000000     

                                 NWChem DFT Module
                                 -----------------


                                    degradation




 Summary of "ao basis" -> "ao basis" (cartesian)
 ------------------------------------------------------------------------------
       Tag                 Description            Shells   Functions and Types
 ---------------- ------------------------------  ------  ---------------------
 H                          6-311g*                  3        3   3s


      Symmetry analysis of basis
      --------------------------

        a1g         3
        a1u         0
        a2g         0
        a2u         3
        b1g         0
        b1u         0
        b2g         0
        b2u         0
        eg          0
        eu          0

  Caching 1-el integrals 

            General Information
            -------------------
          SCF calculation type: DFT
          Wavefunction type:  closed shell.
          No. of atoms     :     2
          No. of electrons :     2
           Alpha electrons :     1
            Beta electrons :     1
          Charge           :     0
          Spin multiplicity:     1
          Use of symmetry is: on ; symmetry adaption is: on 
          Maximum number of iterations:  30
          AO basis - number of functions:     6
                     number of shells:     6
          Convergence on energy requested:  1.00D-06
          Convergence on density requested:  1.00D-05
          Convergence on gradient requested:  5.00D-04

              XC Information
              --------------
                         B3LYP Method XC Potential
                     Hartree-Fock (Exact) Exchange  0.200          
                        Slater Exchange Functional  0.800 local    
                    Becke 1988 Exchange Functional  0.720 non-local
              Lee-Yang-Parr Correlation Functional  0.810          
                  VWN I RPA Correlation Functional  0.190 local    

             Grid Information
             ----------------
          Grid used for XC integration:  fine      
          Radial quadrature: Mura-Knowles        
          Angular quadrature: Lebedev. 
          Tag              B.-S. Rad. Rad. Pts. Rad. Cut. Ang. Pts.
          ---              ---------- --------- --------- ---------
          H                   0.35       60           6.0       590
          Grid pruning is: on 
          Number of quadrature shells:    60
          Spatial weights used:  Erf1

          Convergence Information
          -----------------------
          Convergence aids based upon iterative change in 
          total energy or number of iterations. 
          Levelshifting, if invoked, occurs when the 
          HOMO/LUMO gap drops below (HL_TOL):  1.00D-02
          DIIS, if invoked, will attempt to extrapolate 
          using up to (NFOCK): 10 stored Fock matrices.

                    Damping( 0%)  Levelshifting(0.5)       DIIS
                  --------------- ------------------- ---------------
          dE  on:    start            ASAP                start   
          dE off:    2 iters         30 iters            30 iters 


      Screening Tolerance Information
      -------------------------------
          Density screening/tol_rho:  1.00D-10
          AO Gaussian exp screening on grid/accAOfunc:  14
          CD Gaussian exp screening on grid/accCDfunc:  20
          XC Gaussian exp screening on grid/accXCfunc:  20
          Schwarz screening/accCoul:  1.00D-08

      Dispersion Parameters
      ---------------------

           DFT-D3BJ Model   
          s6 scale factor  :        1.000000000000
          s8 scale factor  :        1.988900000000
          a1 parameter     :        0.398100000000
          a2 parameter     :        4.421100000000
              vdW contrib  :       -0.000141875935


 Loading old vectors from job with title :

degradation


      Symmetry analysis of molecular orbitals - initial
      -------------------------------------------------

  Numbering of irreducible representations: 

     1 a1g         2 a1u         3 a2g         4 a2u         5 b1g     
     6 b1u         7 b2g         8 b2u         9 eg         10 eu      

  Orbital symmetries:

     1 a1g         2 a2u         3 a1g         4 a2u         5 a1g     
     6 a2u     

   Time after variat. SCF:      0.7
   Time prior to 1st pass:      0.7

 #quartets = 1.560D+02 #integrals = 1.560D+02 #direct =  0.0% #cached =100.0%


 Integral file          = ./degradation_start.aoints.00
 Record size in doubles =  65536        No. of integs per rec  =  43688
 Max. records in memory =      1        Max. records in file   = 119598
 No. of bits per label  =      8        No. of bits per value  =     64


File balance: exchanges=     0  moved=     0  time=   0.0


 Grid_pts file          = ./degradation_start.gridpts.00
 Record size in doubles =  12289        No. of grid_pts per rec  =   3070
 Max. records in memory =      2        Max. recs in file   =    637811


           Memory utilization after 1st SCF pass: 
           Heap Space remaining (MW):      229.29           229285064
          Stack Space remaining (MW):      229.38           229375820

   convergence    iter        energy       DeltaE   RMS-Dens  Diis-err    time
 ---------------- ----- ----------------- --------- --------- ---------  ------
 d= 0,ls=0.0,diis     1     -1.1762512429 -1.88D+00  3.90D-03  3.21D-03     0.8
 d= 0,ls=0.0,diis     2     -1.1766388808 -3.88D-04  8.87D-04  4.32D-05     0.9
 d= 0,ls=0.0,diis     3     -1.1766495050 -1.06D-05  4.20D-05  3.63D-07     0.9
 d= 0,ls=0.0,diis     4     -1.1766495589 -5.39D-08  2.79D-08  2.27D-13     1.0


         Total DFT energy =       -1.176649558934
      One electron energy =       -2.474315623961
           Coulomb energy =        1.294403483918
    Exchange-Corr. energy =       -0.696696996104
 Nuclear repulsion energy =        0.700101453148

    Dispersion correction =       -0.000141875935

 Numeric. integr. density =        2.000000000778

     Total iterative time =      0.3s



                  Occupations of the irreducible representations
                  ----------------------------------------------

                     irrep           alpha         beta
                     --------     --------     --------
                     a1g               1.0          1.0
                     a1u               0.0          0.0
                     a2g               0.0          0.0
                     a2u               0.0          0.0
                     b1g               0.0          0.0
                     b1u               0.0          0.0
                     b2g               0.0          0.0
                     b2u               0.0          0.0
                     eg                0.0          0.0
                     eu                0.0          0.0


                       DFT Final Molecular Orbital Analysis
                       ------------------------------------

 Vector    1  Occ=2.000000D+00  E=-4.341405D-01  Symmetry=a1g
              MO Center=  0.0D+00,  0.0D+00, -6.3D-17, r^2= 7.5D-01
   Bfn.  Coefficient  Atom+Function         Bfn.  Coefficient  Atom+Function  
  ----- ------------  ---------------      ----- ------------  ---------------
     2      0.280624  1 H  s                  5      0.280624  2 H  s          
     1      0.200960  1 H  s                  4      0.200960  2 H  s          
     3      0.138111  1 H  s                  6      0.138111  2 H  s          

 Vector    2  Occ=0.000000D+00  E= 5.608874D-02  Symmetry=a2u
              MO Center=  0.0D+00,  0.0D+00,  4.7D-16, r^2= 3.0D+00
   Bfn.  Coefficient  Atom+Function         Bfn.  Coefficient  Atom+Function  
  ----- ------------  ---------------      ----- ------------  ---------------
     3      1.956652  1 H  s                  6     -1.956652  2 H  s          
     2      0.153496  1 H  s                  5     -0.153496  2 H  s          
     1      0.101034  1 H  s                  4     -0.101034  2 H  s          

 Vector    3  Occ=0.000000D+00  E= 1.970879D-01  Symmetry=a1g
              MO Center=  0.0D+00,  0.0D+00,  1.7D-15, r^2= 3.2D+00
   Bfn.  Coefficient  Atom+Function         Bfn.  Coefficient  Atom+Function  
  ----- ------------  ---------------      ----- ------------  ---------------
     3      0.836788  1 H  s                  6      0.836788  2 H  s          
     2     -0.687896  1 H  s                  5     -0.687896  2 H  s          
     1     -0.078444  1 H  s                  4     -0.078444  2 H  s          

 Vector    4  Occ=0.000000D+00  E= 4.692538D-01  Symmetry=a2u
              MO Center=  0.0D+00,  0.0D+00, -1.5D-15, r^2= 2.6D+00
   Bfn.  Coefficient  Atom+Function         Bfn.  Coefficient  Atom+Function  
  ----- ------------  ---------------      ----- ------------  ---------------
     3      2.365292  1 H  s                  6     -2.365292  2 H  s          
     2     -1.624055  1 H  s                  5      1.624055  2 H  s          
     1     -0.124935  1 H  s                  4      0.124935  2 H  s          

 Vector    5  Occ=0.000000D+00  E= 2.125234D+00  Symmetry=a1g
              MO Center=  0.0D+00,  0.0D+00, -2.2D-15, r^2= 1.2D+00
   Bfn.  Coefficient  Atom+Function         Bfn.  Coefficient  Atom+Function  
  ----- ------------  ---------------      ----- ------------  ---------------
     2      1.241960  1 H  s                  5      1.241960  2 H  s          
     1     -1.086729  1 H  s                  4     -1.086729  2 H  s          
     3     -0.506878  1 H  s                  6     -0.506878  2 H  s          

 Vector    6  Occ=0.000000D+00  E= 2.369278D+00  Symmetry=a2u
              MO Center=  0.0D+00,  0.0D+00,  2.2D-15, r^2= 1.0D+00
   Bfn.  Coefficient  Atom+Function         Bfn.  Coefficient  Atom+Function  
  ----- ------------  ---------------      ----- ------------  ---------------
     2      1.849314  1 H  s                  5     -1.849314  2 H  s          
     3     -1.265168  1 H  s                  6      1.265168  2 H  s          
     1     -1.118425  1 H  s                  4      1.118425  2 H  s          


 center of mass
 --------------
 x =   0.00000000 y =   0.00000000 z =   0.00000000

 moments of inertia (a.u.)
 ------------------
           1.028094825670           0.000000000000           0.000000000000
           0.000000000000           1.028094825670           0.000000000000
           0.000000000000           0.000000000000           0.000000000000

     Multipole analysis of the density
     ---------------------------------

     L   x y z        total         alpha         beta         nuclear
     -   - - -        -----         -----         ----         -------
     0   0 0 0     -0.000000     -1.000000     -1.000000      2.000000

     1   1 0 0      0.000000      0.000000      0.000000      0.000000
     1   0 1 0      0.000000      0.000000      0.000000      0.000000
     1   0 0 1      0.000000      0.000000      0.000000      0.000000

     2   2 0 0     -1.549301     -0.774650     -0.774650      0.000000
     2   1 1 0      0.000000      0.000000      0.000000      0.000000
     2   1 0 1      0.000000      0.000000      0.000000      0.000000
     2   0 2 0     -1.549301     -0.774650     -0.774650      0.000000
     2   0 1 1      0.000000      0.000000      0.000000      0.000000
     2   0 0 2     -1.229661     -1.124887     -1.124887      1.020112


 Parallel integral file used      31 records with       0 large values

 Line search: 
     step= 1.00 grad=-2.4D-03 hess= 1.7D-03 energy=     -1.176650 mode=downhill
 new step= 0.70                   predicted energy=     -1.176798
  no constraints, skipping    0.0000000000000000     
  no constraints, skipping    0.0000000000000000     
  no constraints, skipping    0.0000000000000000     

          --------
          Step   1
          --------


                         Geometry "geometry" -> "geometry"
                         ---------------------------------

 Output coordinates in angstroms (scale by  1.889725989 to convert to a.u.)

  No.       Tag          Charge          X              Y              Z
 ---- ---------------- ---------- -------------- -------------- --------------
    1 H                    1.0000     0.00000000     0.00000000    -0.37085271
    2 H                    1.0000     0.00000000     0.00000000     0.37085271

      Atomic Mass 
      ----------- 

      H                  1.007825


 Effective nuclear repulsion energy (a.u.)       0.7134601430

            Nuclear Dipole moment (a.u.) 
            ----------------------------
        X                 Y               Z
 ---------------- ---------------- ----------------
     0.0000000000     0.0000000000     0.0000000000

      Symmetry information
      --------------------

 Group name             D4h       
 Group number             28
 Group order              16
 No. of unique centers     1

      Symmetry unique atoms

     1


                                 NWChem DFT Module
                                 -----------------


                                    degradation




 Summary of "ao basis" -> "ao basis" (cartesian)
 ------------------------------------------------------------------------------
       Tag                 Description            Shells   Functions and Types
 ---------------- ------------------------------  ------  ---------------------
 H                          6-311g*                  3        3   3s


      Symmetry analysis of basis
      --------------------------

        a1g         3
        a1u         0
        a2g         0
        a2u         3
        b1g         0
        b1u         0
        b2g         0
        b2u         0
        eg          0
        eu          0

  Caching 1-el integrals 

            General Information
            -------------------
          SCF calculation type: DFT
          Wavefunction type:  closed shell.
          No. of atoms     :     2
          No. of electrons :     2
           Alpha electrons :     1
            Beta electrons :     1
          Charge           :     0
          Spin multiplicity:     1
          Use of symmetry is: on ; symmetry adaption is: on 
          Maximum number of iterations:  30
          AO basis - number of functions:     6
                     number of shells:     6
          Convergence on energy requested:  1.00D-06
          Convergence on density requested:  1.00D-05
          Convergence on gradient requested:  5.00D-04

              XC Information
              --------------
                         B3LYP Method XC Potential
                     Hartree-Fock (Exact) Exchange  0.200          
                        Slater Exchange Functional  0.800 local    
                    Becke 1988 Exchange Functional  0.720 non-local
              Lee-Yang-Parr Correlation Functional  0.810          
                  VWN I RPA Correlation Functional  0.190 local    

             Grid Information
             ----------------
          Grid used for XC integration:  fine      
          Radial quadrature: Mura-Knowles        
          Angular quadrature: Lebedev. 
          Tag              B.-S. Rad. Rad. Pts. Rad. Cut. Ang. Pts.
          ---              ---------- --------- --------- ---------
          H                   0.35       60           6.0       590
          Grid pruning is: on 
          Number of quadrature shells:    60
          Spatial weights used:  Erf1

          Convergence Information
          -----------------------
          Convergence aids based upon iterative change in 
          total energy or number of iterations. 
          Levelshifting, if invoked, occurs when the 
          HOMO/LUMO gap drops below (HL_TOL):  1.00D-02
          DIIS, if invoked, will attempt to extrapolate 
          using up to (NFOCK): 10 stored Fock matrices.

                    Damping( 0%)  Levelshifting(0.5)       DIIS
                  --------------- ------------------- ---------------
          dE  on:    start            ASAP                start   
          dE off:    2 iters         30 iters            30 iters 


      Screening Tolerance Information
      -------------------------------
          Density screening/tol_rho:  1.00D-10
          AO Gaussian exp screening on grid/accAOfunc:  14
          CD Gaussian exp screening on grid/accCDfunc:  20
          XC Gaussian exp screening on grid/accXCfunc:  20
          Schwarz screening/accCoul:  1.00D-08

      Dispersion Parameters
      ---------------------

           DFT-D3BJ Model   
          s6 scale factor  :        1.000000000000
          s8 scale factor  :        1.988900000000
          a1 parameter     :        0.398100000000
          a2 parameter     :        4.421100000000
              vdW contrib  :       -0.000140643101


 Loading old vectors from job with title :

degradation


      Symmetry analysis of molecular orbitals - initial
      -------------------------------------------------

  Numbering of irreducible representations: 

     1 a1g         2 a1u         3 a2g         4 a2u         5 b1g     
     6 b1u         7 b2g         8 b2u         9 eg         10 eu      

  Orbital symmetries:

     1 a1g         2 a2u         3 a1g         4 a2u         5 a1g     
     6 a2u     

   Time after variat. SCF:      1.1
   Time prior to 1st pass:      1.1

 #quartets = 1.560D+02 #integrals = 1.560D+02 #direct =  0.0% #cached =100.0%


 Integral file          = ./degradation_start.aoints.00
 Record size in doubles =  65536        No. of integs per rec  =  43688
 Max. records in memory =      1        Max. records in file   = 119598
 No. of bits per label  =      8        No. of bits per value  =     64


File balance: exchanges=     0  moved=     0  time=   0.0


 Grid_pts file          = ./degradation_start.gridpts.00
 Record size in doubles =  12289        No. of grid_pts per rec  =   3070
 Max. records in memory =      2        Max. recs in file   =    637811


           Memory utilization after 1st SCF pass: 
           Heap Space remaining (MW):      229.29           229285064
          Stack Space remaining (MW):      229.38           229375820

   convergence    iter        energy       DeltaE   RMS-Dens  Diis-err    time
 ---------------- ----- ----------------- --------- --------- ---------  ------
 d= 0,ls=0.0,diis     1     -1.1767391482 -1.89D+00  1.13D-03  2.66D-04     1.2
 d= 0,ls=0.0,diis     2     -1.1767716947 -3.25D-05  2.54D-04  3.82D-06     1.3
 d= 0,ls=0.0,diis     3     -1.1767726119 -9.17D-07  1.15D-05  2.90D-08     1.3
 d= 0,ls=0.0,diis     4     -1.1767726161 -4.22D-09  2.33D-09  1.56D-15     1.4


         Total DFT energy =       -1.176772616108
      One electron energy =       -2.492922949429
           Coulomb energy =        1.304214978155
    Exchange-Corr. energy =       -0.701384144776
 Nuclear repulsion energy =        0.713460143042

    Dispersion correction =       -0.000140643101

 Numeric. integr. density =        2.000000013711

     Total iterative time =      0.3s



                  Occupations of the irreducible representations
                  ----------------------------------------------

                     irrep           alpha         beta
                     --------     --------     --------
                     a1g               1.0          1.0
                     a1u               0.0          0.0
                     a2g               0.0          0.0
                     a2u               0.0          0.0
                     b1g               0.0          0.0
                     b1u               0.0          0.0
                     b2g               0.0          0.0
                     b2u               0.0          0.0
                     eg                0.0          0.0
                     eu                0.0          0.0


                       DFT Final Molecular Orbital Analysis
                       ------------------------------------

 Vector    1  Occ=2.000000D+00  E=-4.369972D-01  Symmetry=a1g
              MO Center=  0.0D+00,  0.0D+00, -1.4D-17, r^2= 7.4D-01
   Bfn.  Coefficient  Atom+Function         Bfn.  Coefficient  Atom+Function  
  ----- ------------  ---------------      ----- ------------  ---------------
     2      0.279390  1 H  s                  5      0.279390  2 H  s          
     1      0.202769  1 H  s                  4      0.202769  2 H  s          
     3      0.136387  1 H  s                  6      0.136387  2 H  s          

 Vector    2  Occ=0.000000D+00  E= 5.896556D-02  Symmetry=a2u
              MO Center=  0.0D+00,  0.0D+00, -1.9D-16, r^2= 3.0D+00
   Bfn.  Coefficient  Atom+Function         Bfn.  Coefficient  Atom+Function  
  ----- ------------  ---------------      ----- ------------  ---------------
     3      2.007266  1 H  s                  6     -2.007266  2 H  s          
     2      0.147551  1 H  s                  5     -0.147551  2 H  s          
     1      0.099282  1 H  s                  4     -0.099282  2 H  s          

 Vector    3  Occ=0.000000D+00  E= 1.962204D-01  Symmetry=a1g
              MO Center=  0.0D+00,  0.0D+00,  2.4D-16, r^2= 3.2D+00
   Bfn.  Coefficient  Atom+Function         Bfn.  Coefficient  Atom+Function  
  ----- ------------  ---------------      ----- ------------  ---------------
     3      0.834386  1 H  s                  6      0.834386  2 H  s          
     2     -0.681639  1 H  s                  5     -0.681639  2 H  s          
     1     -0.079094  1 H  s                  4     -0.079094  2 H  s          

 Vector    4  Occ=0.000000D+00  E= 4.751896D-01  Symmetry=a2u
              MO Center=  0.0D+00,  0.0D+00,  1.8D-16, r^2= 2.6D+00
   Bfn.  Coefficient  Atom+Function         Bfn.  Coefficient  Atom+Function  
  ----- ------------  ---------------      ----- ------------  ---------------
     3      2.393270  1 H  s                  6     -2.393270  2 H  s          
     2     -1.654456  1 H  s                  5      1.654456  2 H  s          
     1     -0.124235  1 H  s                  4      0.124235  2 H  s          

 Vector    5  Occ=0.000000D+00  E= 2.107174D+00  Symmetry=a1g
              MO Center=  0.0D+00,  0.0D+00, -3.1D-16, r^2= 1.2D+00
   Bfn.  Coefficient  Atom+Function         Bfn.  Coefficient  Atom+Function  
  ----- ------------  ---------------      ----- ------------  ---------------
     2      1.239941  1 H  s                  5      1.239941  2 H  s          
     1     -1.080774  1 H  s                  4     -1.080774  2 H  s          
     3     -0.507336  1 H  s                  6     -0.507336  2 H  s          

 Vector    6  Occ=0.000000D+00  E= 2.386159D+00  Symmetry=a2u
              MO Center=  0.0D+00,  0.0D+00,  1.7D-16, r^2= 1.0D+00
   Bfn.  Coefficient  Atom+Function         Bfn.  Coefficient  Atom+Function  
  ----- ------------  ---------------      ----- ------------  ---------------
     2      1.862206  1 H  s                  5     -1.862206  2 H  s          
     3     -1.276615  1 H  s                  6      1.276615  2 H  s          
     1     -1.124107  1 H  s                  4      1.124107  2 H  s          


 center of mass
 --------------
 x =   0.00000000 y =   0.00000000 z =   0.00000000

 moments of inertia (a.u.)
 ------------------
           0.989955558302           0.000000000000           0.000000000000
           0.000000000000           0.989955558302           0.000000000000
           0.000000000000           0.000000000000           0.000000000000

     Multipole analysis of the density
     ---------------------------------

     L   x y z        total         alpha         beta         nuclear
     -   - - -        -----         -----         ----         -------
     0   0 0 0     -0.000000     -1.000000     -1.000000      2.000000

     1   1 0 0      0.000000      0.000000      0.000000      0.000000
     1   0 1 0      0.000000      0.000000      0.000000      0.000000
     1   0 0 1      0.000000      0.000000      0.000000      0.000000

     2   2 0 0     -1.535115     -0.767557     -0.767557      0.000000
     2   1 1 0      0.000000      0.000000      0.000000      0.000000
     2   1 0 1      0.000000      0.000000      0.000000      0.000000
     2   0 2 0     -1.535115     -0.767557     -0.767557      0.000000
     2   0 1 1      0.000000      0.000000      0.000000      0.000000
     2   0 0 2     -1.225719     -1.103994     -1.103994      0.982269


 Parallel integral file used      31 records with       0 large values


            General Information
            -------------------
          SCF calculation type: DFT
          Wavefunction type:  closed shell.
          No. of atoms     :     2
          No. of electrons :     2
           Alpha electrons :     1
            Beta electrons :     1
          Charge           :     0
          Spin multiplicity:     1
          Use of symmetry is: on ; symmetry adaption is: on 
          Maximum number of iterations:  30
          AO basis - number of functions:     6
                     number of shells:     6
          Convergence on energy requested:  1.00D-06
          Convergence on density requested:  1.00D-05
          Convergence on gradient requested:  5.00D-04

              XC Information
              --------------
                         B3LYP Method XC Potential
                     Hartree-Fock (Exact) Exchange  0.200          
                        Slater Exchange Functional  0.800 local    
                    Becke 1988 Exchange Functional  0.720 non-local
              Lee-Yang-Parr Correlation Functional  0.810          
                  VWN I RPA Correlation Functional  0.190 local    

             Grid Information
             ----------------
          Grid used for XC integration:  fine      
          Radial quadrature: Mura-Knowles        
          Angular quadrature: Lebedev. 
          Tag              B.-S. Rad. Rad. Pts. Rad. Cut. Ang. Pts.
          ---              ---------- --------- --------- ---------
          H                   0.35       60           6.0       590
          Grid pruning is: on 
          Number of quadrature shells:    60
          Spatial weights used:  Erf1

          Convergence Information
          -----------------------
          Convergence aids based upon iterative change in 
          total energy or number of iterations. 
          Levelshifting, if invoked, occurs when the 
          HOMO/LUMO gap drops below (HL_TOL):  1.00D-02
          DIIS, if invoked, will attempt to extrapolate 
          using up to (NFOCK): 10 stored Fock matrices.

                    Damping( 0%)  Levelshifting(0.5)       DIIS
                  --------------- ------------------- ---------------
          dE  on:    start            ASAP                start   
          dE off:    2 iters         30 iters            30 iters 


      Screening Tolerance Information
      -------------------------------
          Density screening/tol_rho:  1.00D-10
          AO Gaussian exp screening on grid/accAOfunc:  14
          CD Gaussian exp screening on grid/accCDfunc:  20
          XC Gaussian exp screening on grid/accXCfunc:  20
          Schwarz screening/accCoul:  1.00D-08



                            NWChem DFT Gradient Module
                            --------------------------


                                    degradation



  charge          =   0.00
  wavefunction    = closed shell

  Using symmetry


                         DFT ENERGY GRADIENTS

    atom               coordinates                        gradient
                 x          y          z           x          y          z
   1 H       0.000000   0.000000  -0.700810    0.000000   0.000000   0.000171
   2 H       0.000000   0.000000   0.700810    0.000000   0.000000  -0.000171

                 ----------------------------------------
                 |  Time  |  1-e(secs)   |  2-e(secs)   |
                 ----------------------------------------
                 |  CPU   |       0.00   |       0.00   |
                 ----------------------------------------
                 |  WALL  |       0.00   |       0.00   |
                 ----------------------------------------
  no constraints, skipping    0.0000000000000000     

  Step       Energy      Delta E   Gmax     Grms     Xrms     Xmax   Walltime
  ---- ---------------- -------- -------- -------- -------- -------- --------
@    1      -1.17677262 -8.2D-04  0.00017  0.00017  0.01839  0.03185      1.4
                                     ok       ok                    



                                Z-matrix (autoz)
                                -------- 

 Units are Angstrom for bonds and degrees for angles

      Type          Name      I     J     K     L     M      Value     Gradient
      ----------- --------  ----- ----- ----- ----- ----- ---------- ----------
    1 Stretch                  1     2                       0.74171   -0.00017

  no constraints, skipping    0.0000000000000000     
  no constraints, skipping    0.0000000000000000     
  no constraints, skipping    0.0000000000000000     

                                 NWChem DFT Module
                                 -----------------


                                    degradation




 Summary of "ao basis" -> "ao basis" (cartesian)
 ------------------------------------------------------------------------------
       Tag                 Description            Shells   Functions and Types
 ---------------- ------------------------------  ------  ---------------------
 H                          6-311g*                  3        3   3s


      Symmetry analysis of basis
      --------------------------

        a1g         3
        a1u         0
        a2g         0
        a2u         3
        b1g         0
        b1u         0
        b2g         0
        b2u         0
        eg          0
        eu          0

  Caching 1-el integrals 

            General Information
            -------------------
          SCF calculation type: DFT
          Wavefunction type:  closed shell.
          No. of atoms     :     2
          No. of electrons :     2
           Alpha electrons :     1
            Beta electrons :     1
          Charge           :     0
          Spin multiplicity:     1
          Use of symmetry is: on ; symmetry adaption is: on 
          Maximum number of iterations:  30
          AO basis - number of functions:     6
                     number of shells:     6
          Convergence on energy requested:  1.00D-06
          Convergence on density requested:  1.00D-05
          Convergence on gradient requested:  5.00D-04

              XC Information
              --------------
                         B3LYP Method XC Potential
                     Hartree-Fock (Exact) Exchange  0.200          
                        Slater Exchange Functional  0.800 local    
                    Becke 1988 Exchange Functional  0.720 non-local
              Lee-Yang-Parr Correlation Functional  0.810          
                  VWN I RPA Correlation Functional  0.190 local    

             Grid Information
             ----------------
          Grid used for XC integration:  fine      
          Radial quadrature: Mura-Knowles        
          Angular quadrature: Lebedev. 
          Tag              B.-S. Rad. Rad. Pts. Rad. Cut. Ang. Pts.
          ---              ---------- --------- --------- ---------
          H                   0.35       60           6.0       590
          Grid pruning is: on 
          Number of quadrature shells:    60
          Spatial weights used:  Erf1

          Convergence Information
          -----------------------
          Convergence aids based upon iterative change in 
          total energy or number of iterations. 
          Levelshifting, if invoked, occurs when the 
          HOMO/LUMO gap drops below (HL_TOL):  1.00D-02
          DIIS, if invoked, will attempt to extrapolate 
          using up to (NFOCK): 10 stored Fock matrices.

                    Damping( 0%)  Levelshifting(0.5)       DIIS
                  --------------- ------------------- ---------------
          dE  on:    start            ASAP                start   
          dE off:    2 iters         30 iters            30 iters 


      Screening Tolerance Information
      -------------------------------
          Density screening/tol_rho:  1.00D-10
          AO Gaussian exp screening on grid/accAOfunc:  14
          CD Gaussian exp screening on grid/accCDfunc:  20
          XC Gaussian exp screening on grid/accXCfunc:  20
          Schwarz screening/accCoul:  1.00D-08

      Dispersion Parameters
      ---------------------

           DFT-D3BJ Model   
          s6 scale factor  :        1.000000000000
          s8 scale factor  :        1.988900000000
          a1 parameter     :        0.398100000000
          a2 parameter     :        4.421100000000
              vdW contrib  :       -0.000140658361


 Loading old vectors from job with title :

degradation


      Symmetry analysis of molecular orbitals - initial
      -------------------------------------------------

  Numbering of irreducible representations: 

     1 a1g         2 a1u         3 a2g         4 a2u         5 b1g     
     6 b1u         7 b2g         8 b2u         9 eg         10 eu      

  Orbital symmetries:

     1 a1g         2 a2u         3 a1g         4 a2u         5 a1g     
     6 a2u     

   Time after variat. SCF:      1.5
   Time prior to 1st pass:      1.5

 #quartets = 1.560D+02 #integrals = 1.560D+02 #direct =  0.0% #cached =100.0%


 Integral file          = ./degradation_start.aoints.00
 Record size in doubles =  65536        No. of integs per rec  =  43688
 Max. records in memory =      1        Max. records in file   = 119598
 No. of bits per label  =      8        No. of bits per value  =     64


File balance: exchanges=     0  moved=     0  time=   0.0


 Grid_pts file          = ./degradation_start.gridpts.00
 Record size in doubles =  12289        No. of grid_pts per rec  =   3070
 Max. records in memory =      2        Max. recs in file   =    637811


           Memory utilization after 1st SCF pass: 
           Heap Space remaining (MW):      229.29           229285064
          Stack Space remaining (MW):      229.38           229375820

   convergence    iter        energy       DeltaE   RMS-Dens  Diis-err    time
 ---------------- ----- ----------------- --------- --------- ---------  ------
 d= 0,ls=0.0,diis     1     -1.1767726473 -1.89D+00  1.77D-05  6.57D-08     1.7
 d= 0,ls=0.0,diis     2     -1.1767726553 -8.01D-09  4.00D-06  9.40D-10     1.7


         Total DFT energy =       -1.176772655301
      One electron energy =       -2.492623743971
           Coulomb energy =        1.304046308485
    Exchange-Corr. energy =       -0.701303047706
 Nuclear repulsion energy =        0.713248486253

    Dispersion correction =       -0.000140658361

 Numeric. integr. density =        2.000000013610

     Total iterative time =      0.2s



                  Occupations of the irreducible representations
                  ----------------------------------------------

                     irrep           alpha         beta
                     --------     --------     --------
                     a1g               1.0          1.0
                     a1u               0.0          0.0
                     a2g               0.0          0.0
                     a2u               0.0          0.0
                     b1g               0.0          0.0
                     b1u               0.0          0.0
                     b2g               0.0          0.0
                     b2u               0.0          0.0
                     eg                0.0          0.0
                     eu                0.0          0.0


                       DFT Final Molecular Orbital Analysis
                       ------------------------------------

 Vector    1  Occ=2.000000D+00  E=-4.369548D-01  Symmetry=a1g
              MO Center=  0.0D+00,  0.0D+00, -2.3D-17, r^2= 7.4D-01
   Bfn.  Coefficient  Atom+Function         Bfn.  Coefficient  Atom+Function  
  ----- ------------  ---------------      ----- ------------  ---------------
     2      0.279409  1 H  s                  5      0.279409  2 H  s          
     1      0.202741  1 H  s                  4      0.202741  2 H  s          
     3      0.136413  1 H  s                  6      0.136413  2 H  s          

 Vector    2  Occ=0.000000D+00  E= 5.891995D-02  Symmetry=a2u
              MO Center=  0.0D+00,  0.0D+00,  5.7D-16, r^2= 3.0D+00
   Bfn.  Coefficient  Atom+Function         Bfn.  Coefficient  Atom+Function  
  ----- ------------  ---------------      ----- ------------  ---------------
     3      2.006462  1 H  s                  6     -2.006462  2 H  s          
     2      0.147647  1 H  s                  5     -0.147647  2 H  s          
     1      0.099310  1 H  s                  4     -0.099310  2 H  s          

 Vector    3  Occ=0.000000D+00  E= 1.962327D-01  Symmetry=a1g
              MO Center=  0.0D+00,  0.0D+00, -4.0D-16, r^2= 3.2D+00
   Bfn.  Coefficient  Atom+Function         Bfn.  Coefficient  Atom+Function  
  ----- ------------  ---------------      ----- ------------  ---------------
     3      0.834423  1 H  s                  6      0.834423  2 H  s          
     2     -0.681736  1 H  s                  5     -0.681736  2 H  s          
     1     -0.079084  1 H  s                  4     -0.079084  2 H  s          

 Vector    4  Occ=0.000000D+00  E= 4.750947D-01  Symmetry=a2u
              MO Center=  0.0D+00,  0.0D+00, -5.6D-16, r^2= 2.6D+00
   Bfn.  Coefficient  Atom+Function         Bfn.  Coefficient  Atom+Function  
  ----- ------------  ---------------      ----- ------------  ---------------
     3      2.392827  1 H  s                  6     -2.392827  2 H  s          
     2     -1.653972  1 H  s                  5      1.653972  2 H  s          
     1     -0.124247  1 H  s                  4      0.124247  2 H  s          

 Vector    5  Occ=0.000000D+00  E= 2.107456D+00  Symmetry=a1g
              MO Center=  0.0D+00,  0.0D+00, -5.1D-17, r^2= 1.2D+00
   Bfn.  Coefficient  Atom+Function         Bfn.  Coefficient  Atom+Function  
  ----- ------------  ---------------      ----- ------------  ---------------
     2      1.239974  1 H  s                  5      1.239974  2 H  s          
     1     -1.080869  1 H  s                  4     -1.080869  2 H  s          
     3     -0.507330  1 H  s                  6     -0.507330  2 H  s          

 Vector    6  Occ=0.000000D+00  E= 2.385885D+00  Symmetry=a2u
              MO Center=  0.0D+00,  0.0D+00,  1.8D-16, r^2= 1.0D+00
   Bfn.  Coefficient  Atom+Function         Bfn.  Coefficient  Atom+Function  
  ----- ------------  ---------------      ----- ------------  ---------------
     2      1.862002  1 H  s                  5     -1.862002  2 H  s          
     3     -1.276434  1 H  s                  6      1.276434  2 H  s          
     1     -1.124015  1 H  s                  4      1.124015  2 H  s          


 center of mass
 --------------
 x =   0.00000000 y =   0.00000000 z =   0.00000000

 moments of inertia (a.u.)
 ------------------
           0.990543184936           0.000000000000           0.000000000000
           0.000000000000           0.990543184936           0.000000000000
           0.000000000000           0.000000000000           0.000000000000

     Multipole analysis of the density
     ---------------------------------

     L   x y z        total         alpha         beta         nuclear
     -   - - -        -----         -----         ----         -------
     0   0 0 0     -0.000000     -1.000000     -1.000000      2.000000

     1   1 0 0      0.000000      0.000000      0.000000      0.000000
     1   0 1 0      0.000000      0.000000      0.000000      0.000000
     1   0 0 1     -0.000000     -0.000000     -0.000000      0.000000

     2   2 0 0     -1.535333     -0.767667     -0.767667      0.000000
     2   1 1 0      0.000000      0.000000      0.000000      0.000000
     2   1 0 1      0.000000      0.000000      0.000000      0.000000
     2   0 2 0     -1.535333     -0.767667     -0.767667      0.000000
     2   0 1 1      0.000000      0.000000      0.000000      0.000000
     2   0 0 2     -1.225779     -1.104316     -1.104316      0.982852


 Parallel integral file used      31 records with       0 large values

 Line search: 
     step= 1.00 grad=-7.1D-08 hess= 3.2D-08 energy=     -1.176773 mode=accept  
 new step= 1.00                   predicted energy=     -1.176773
  no constraints, skipping    0.0000000000000000     
  no constraints, skipping    0.0000000000000000     
  no constraints, skipping    0.0000000000000000     

          --------
          Step   2
          --------


                         Geometry "geometry" -> "geometry"
                         ---------------------------------

 Output coordinates in angstroms (scale by  1.889725989 to convert to a.u.)

  No.       Tag          Charge          X              Y              Z
 ---- ---------------- ---------- -------------- -------------- --------------
    1 H                    1.0000     0.00000000     0.00000000    -0.37096276
    2 H                    1.0000     0.00000000     0.00000000     0.37096276

      Atomic Mass 
      ----------- 

      H                  1.007825


 Effective nuclear repulsion energy (a.u.)       0.7132484863

            Nuclear Dipole moment (a.u.) 
            ----------------------------
        X                 Y               Z
 ---------------- ---------------- ----------------
     0.0000000000     0.0000000000     0.0000000000

      Symmetry information
      --------------------

 Group name             D4h       
 Group number             28
 Group order              16
 No. of unique centers     1

      Symmetry unique atoms

     1


                                 NWChem DFT Module
                                 -----------------


                                    degradation




 Summary of "ao basis" -> "ao basis" (cartesian)
 ------------------------------------------------------------------------------
       Tag                 Description            Shells   Functions and Types
 ---------------- ------------------------------  ------  ---------------------
 H                          6-311g*                  3        3   3s


      Symmetry analysis of basis
      --------------------------

        a1g         3
        a1u         0
        a2g         0
        a2u         3
        b1g         0
        b1u         0
        b2g         0
        b2u         0
        eg          0
        eu          0


  The DFT is already converged 

         Total DFT energy =     -1.176772655301


            General Information
            -------------------
          SCF calculation type: DFT
          Wavefunction type:  closed shell.
          No. of atoms     :     2
          No. of electrons :     2
           Alpha electrons :     1
            Beta electrons :     1
          Charge           :     0
          Spin multiplicity:     1
          Use of symmetry is: on ; symmetry adaption is: on 
          Maximum number of iterations:  30
          AO basis - number of functions:     6
                     number of shells:     6
          Convergence on energy requested:  1.00D-06
          Convergence on density requested:  1.00D-05
          Convergence on gradient requested:  5.00D-04

              XC Information
              --------------
                         B3LYP Method XC Potential
                     Hartree-Fock (Exact) Exchange  0.200          
                        Slater Exchange Functional  0.800 local    
                    Becke 1988 Exchange Functional  0.720 non-local
              Lee-Yang-Parr Correlation Functional  0.810          
                  VWN I RPA Correlation Functional  0.190 local    

             Grid Information
             ----------------
          Grid used for XC integration:  fine      
          Radial quadrature: Mura-Knowles        
          Angular quadrature: Lebedev. 
          Tag              B.-S. Rad. Rad. Pts. Rad. Cut. Ang. Pts.
          ---              ---------- --------- --------- ---------
          H                   0.35       60           6.0       590
          Grid pruning is: on 
          Number of quadrature shells:    60
          Spatial weights used:  Erf1

          Convergence Information
          -----------------------
          Convergence aids based upon iterative change in 
          total energy or number of iterations. 
          Levelshifting, if invoked, occurs when the 
          HOMO/LUMO gap drops below (HL_TOL):  1.00D-02
          DIIS, if invoked, will attempt to extrapolate 
          using up to (NFOCK): 10 stored Fock matrices.

                    Damping( 0%)  Levelshifting(0.5)       DIIS
                  --------------- ------------------- ---------------
          dE  on:    start            ASAP                start   
          dE off:    2 iters         30 iters            30 iters 


      Screening Tolerance Information
      -------------------------------
          Density screening/tol_rho:  1.00D-10
          AO Gaussian exp screening on grid/accAOfunc:  14
          CD Gaussian exp screening on grid/accCDfunc:  20
          XC Gaussian exp screening on grid/accXCfunc:  20
          Schwarz screening/accCoul:  1.00D-08



                            NWChem DFT Gradient Module
                            --------------------------


                                    degradation



  charge          =   0.00
  wavefunction    = closed shell

  Using symmetry


                         DFT ENERGY GRADIENTS

    atom               coordinates                        gradient
                 x          y          z           x          y          z
   1 H       0.000000   0.000000  -0.701018    0.000000   0.000000   0.000019
   2 H       0.000000   0.000000   0.701018    0.000000   0.000000  -0.000019

                 ----------------------------------------
                 |  Time  |  1-e(secs)   |  2-e(secs)   |
                 ----------------------------------------
                 |  CPU   |       0.00   |       0.00   |
                 ----------------------------------------
                 |  WALL  |       0.00   |       0.00   |
                 ----------------------------------------
  no constraints, skipping    0.0000000000000000     

  Step       Energy      Delta E   Gmax     Grms     Xrms     Xmax   Walltime
  ---- ---------------- -------- -------- -------- -------- -------- --------
@    2      -1.17677266 -3.9D-08  0.00002  0.00002  0.00012  0.00021      1.8
                                     ok       ok       ok       ok  



                                Z-matrix (autoz)
                                -------- 

 Units are Angstrom for bonds and degrees for angles

      Type          Name      I     J     K     L     M      Value     Gradient
      ----------- --------  ----- ----- ----- ----- ----- ---------- ----------
    1 Stretch                  1     2                       0.74193   -0.00002


      ----------------------
      Optimization converged
      ----------------------


  Step       Energy      Delta E   Gmax     Grms     Xrms     Xmax   Walltime
  ---- ---------------- -------- -------- -------- -------- -------- --------
@    2      -1.17677266 -3.9D-08  0.00002  0.00002  0.00012  0.00021      1.8
                                     ok       ok       ok       ok  



                                Z-matrix (autoz)
                                -------- 

 Units are Angstrom for bonds and degrees for angles

      Type          Name      I     J     K     L     M      Value     Gradient
      ----------- --------  ----- ----- ----- ----- ----- ---------- ----------
    1 Stretch                  1     2                       0.74193   -0.00002



                         Geometry "geometry" -> "geometry"
                         ---------------------------------

 Output coordinates in angstroms (scale by  1.889725989 to convert to a.u.)

  No.       Tag          Charge          X              Y              Z
 ---- ---------------- ---------- -------------- -------------- --------------
    1 H                    1.0000     0.00000000     0.00000000    -0.37096276
    2 H                    1.0000     0.00000000     0.00000000     0.37096276

      Atomic Mass 
      ----------- 

      H                  1.007825


 Effective nuclear repulsion energy (a.u.)       0.7132484863

            Nuclear Dipole moment (a.u.) 
            ----------------------------
        X                 Y               Z
 ---------------- ---------------- ----------------
     0.0000000000     0.0000000000     0.0000000000

      Symmetry information
      --------------------

 Group name             D4h       
 Group number             28
 Group order              16
 No. of unique centers     1

      Symmetry unique atoms

     1


                Final and change from initial internal coordinates
                --------------------------------------------------



                                Z-matrix (autoz)
                                -------- 

 Units are Angstrom for bonds and degrees for angles

      Type          Name      I     J     K     L     M      Value       Change
      ----------- --------  ----- ----- ----- ----- ----- ---------- ----------
    1 Stretch                  1     2                       0.74193    0.03393


 Task  times  cpu:        0.6s     wall:        1.7s


                                NWChem Input Module
                                -------------------


                                 degradation_freq
                                 ----------------


                   NWChem Nuclear Hessian and Frequency Analysis
                   ---------------------------------------------



                              NWChem Analytic Hessian
                              -----------------------


                                 NWChem DFT Module
                                 -----------------


                                 degradation_freq




 Summary of "ao basis" -> "ao basis" (cartesian)
 ------------------------------------------------------------------------------
       Tag                 Description            Shells   Functions and Types
 ---------------- ------------------------------  ------  ---------------------
 H                          6-311g*                  3        3   3s


  Caching 1-el integrals 

            General Information
            -------------------
          SCF calculation type: DFT
          Wavefunction type:  closed shell.
          No. of atoms     :     2
          No. of electrons :     2
           Alpha electrons :     1
            Beta electrons :     1
          Charge           :     0
          Spin multiplicity:     1
          Use of symmetry is: off; symmetry adaption is: off
          Maximum number of iterations:  30
          AO basis - number of functions:     6
                     number of shells:     6
          Convergence on energy requested:  1.00D-07
          Convergence on density requested:  1.00D-05
          Convergence on gradient requested:  1.00D-06

              XC Information
              --------------
                         B3LYP Method XC Potential
                     Hartree-Fock (Exact) Exchange  0.200          
                        Slater Exchange Functional  0.800 local    
                    Becke 1988 Exchange Functional  0.720 non-local
              Lee-Yang-Parr Correlation Functional  0.810          
                  VWN I RPA Correlation Functional  0.190 local    

             Grid Information
             ----------------
          Grid used for XC integration:  fine      
          Radial quadrature: Mura-Knowles        
          Angular quadrature: Lebedev. 
          Tag              B.-S. Rad. Rad. Pts. Rad. Cut. Ang. Pts.
          ---              ---------- --------- --------- ---------
          H                   0.35       60           8.0       590
          Grid pruning is: on 
          Number of quadrature shells:   120
          Spatial weights used:  Erf1

          Convergence Information
          -----------------------
          Convergence aids based upon iterative change in 
          total energy or number of iterations. 
          Levelshifting, if invoked, occurs when the 
          HOMO/LUMO gap drops below (HL_TOL):  1.00D-02
          DIIS, if invoked, will attempt to extrapolate 
          using up to (NFOCK): 10 stored Fock matrices.

                    Damping( 0%)  Levelshifting(0.5)       DIIS
                  --------------- ------------------- ---------------
          dE  on:    start            ASAP                start   
          dE off:    2 iters         30 iters            30 iters 


      Screening Tolerance Information
      -------------------------------
          Density screening/tol_rho:  1.00D-11
          AO Gaussian exp screening on grid/accAOfunc:  16
          CD Gaussian exp screening on grid/accCDfunc:  20
          XC Gaussian exp screening on grid/accXCfunc:  20
          Schwarz screening/accCoul:  1.00D-12

      Dispersion Parameters
      ---------------------

           DFT-D3BJ Model   
          s6 scale factor  :        1.000000000000
          s8 scale factor  :        1.988900000000
          a1 parameter     :        0.398100000000
          a2 parameter     :        4.421100000000
              vdW contrib  :       -0.000140658361


 Loading old vectors from job with title :

degradation

   Time after variat. SCF:      1.8
   Time prior to 1st pass:      1.8

 #quartets = 2.310D+02 #integrals = 2.310D+02 #direct =  0.0% #cached =100.0%


 Integral file          = ./degradation_start.aoints.00
 Record size in doubles =  65536        No. of integs per rec  =  43688
 Max. records in memory =      2        Max. records in file   = 119598
 No. of bits per label  =      8        No. of bits per value  =     64


File balance: exchanges=     0  moved=     0  time=   0.0


 Grid_pts file          = ./degradation_start.gridpts.00
 Record size in doubles =  12289        No. of grid_pts per rec  =   3070
 Max. records in memory =      2        Max. recs in file   =    637811

 Grid integrated density:       2.000000024390
 Requested integration accuracy:   0.10E-13

           Memory utilization after 1st SCF pass: 
           Heap Space remaining (MW):      229.22           229219528
          Stack Space remaining (MW):      229.38           229375820

   convergence    iter        energy       DeltaE   RMS-Dens  Diis-err    time
 ---------------- ----- ----------------- --------- --------- ---------  ------
[...]
    4        0.000 ||       0.000              -0.000             0.000
    5        0.000 ||       0.000               0.000             0.000
    6     4389.974 ||       0.000               0.000            -0.000
 ----------------------------------------------------------------------------



  
  
 ----------------------------------------------------------------------------
 Normal Eigenvalue ||           Projected Infra Red Intensities
  Mode   [cm**-1]  || [atomic units] [(debye/angs)**2] [(KM/mol)] [arbitrary]
 ------ ---------- || -------------- ----------------- ---------- -----------
    1        0.000 ||    0.000000           0.000         0.000       0.000
    2        0.000 ||    0.000000           0.000         0.000       0.000
    3        0.000 ||    0.000000           0.000         0.000       0.000
    4        0.000 ||    0.000000           0.000         0.000       0.000
    5        0.000 ||    0.000000           0.000         0.000      60.000
    6     4389.974 ||    0.000000           0.000         0.000       0.000
 ----------------------------------------------------------------------------



 vib:animation  F

 Task  times  cpu:        0.3s     wall:        0.8s


                                NWChem Input Module
                                -------------------


                                 degradation_solv
                                 ----------------

                                 NWChem DFT Module
                                 -----------------


                                 degradation_solv




 Summary of "ao basis" -> "ao basis" (cartesian)
 ------------------------------------------------------------------------------
       Tag                 Description            Shells   Functions and Types
 ---------------- ------------------------------  ------  ---------------------
 H                          6-311g*                  3        3   3s


      Symmetry analysis of basis
      --------------------------

        a1g         3
        a1u         0
        a2g         0
        a2u         3
        b1g         0
        b1u         0
        b2g         0
        b2u         0
        eg          0
        eu          0


 solvent parameters
 solvname_short: h2o     
 solvname_long:  water                              
 dielec:       78.3000
 dielecinf:     1.7769

          ---------------
          -cosmo- solvent
          ---------------
 Cosmo: York-Karplus, doi: 10.1021/jp992097l
 dielectric constant -eps-     =  78.30
 screen = (eps-1)/(eps    )    =   0.98723
 surface charge correction     = lagrangian
 -lineq- algorithm             =   0
 -bem- low  level              =   3
 -bem- from -icosahedral-
 gaussian surface charge width =   0.98000
 degree of switching           =   1.00000
 switching function tolerance  =   0.00010
 atomic radii = 
 --------------
    1  1.000  1.300
    2  1.000  1.300

 solvent accessible surface
 --------------------------

 ---------- ATOMIC COORDINATES (A.U.) ------------ VDWR(ANG.) --
     1    0.00000000    0.00000000   -0.70101796     1.300
     2    0.00000000    0.00000000    0.70101796     1.300
 number of segments per atom =        320
 number of   points per atom =        320
 atom (   nspa,  nppa )
 ----------------------
    1 (    220,     0 )       0
    2 (    220,     0 )       0
 number of -cosmo- surface points =      440
 molecular surface =     27.176 angstrom**2
 molecular volume  =     11.776 angstrom**3
 G(cav/disp)       =      0.996 kcal/mol
 ...... end of -cosmo- initialization ......


  Caching 1-el integrals 

            General Information
            -------------------
          SCF calculation type: DFT
          Wavefunction type:  closed shell.
          No. of atoms     :     2
          No. of electrons :     2
           Alpha electrons :     1
            Beta electrons :     1
          Charge           :     0
          Spin multiplicity:     1
          Use of symmetry is: on ; symmetry adaption is: on 
          Maximum number of iterations:  30
          AO basis - number of functions:     6
                     number of shells:     6
          Convergence on energy requested:  1.00D-07
          Convergence on density requested:  1.00D-05
          Convergence on gradient requested:  5.00D-04

              XC Information
              --------------
                         B3LYP Method XC Potential
                     Hartree-Fock (Exact) Exchange  0.200          
                        Slater Exchange Functional  0.800 local    
                    Becke 1988 Exchange Functional  0.720 non-local
              Lee-Yang-Parr Correlation Functional  0.810          
                  VWN I RPA Correlation Functional  0.190 local    

             Grid Information
             ----------------
          Grid used for XC integration:  fine      
          Radial quadrature: Mura-Knowles        
          Angular quadrature: Lebedev. 
          Tag              B.-S. Rad. Rad. Pts. Rad. Cut. Ang. Pts.
          ---              ---------- --------- --------- ---------
          H                   0.35       60           8.0       590
          Grid pruning is: on 
          Number of quadrature shells:    60
          Spatial weights used:  Erf1

          Convergence Information
          -----------------------
          Convergence aids based upon iterative change in 
          total energy or number of iterations. 
          Levelshifting, if invoked, occurs when the 
          HOMO/LUMO gap drops below (HL_TOL):  1.00D-02
          DIIS, if invoked, will attempt to extrapolate 
          using up to (NFOCK): 10 stored Fock matrices.

                    Damping( 0%)  Levelshifting(0.5)       DIIS
                  --------------- ------------------- ---------------
          dE  on:    start            ASAP                start   
          dE off:    2 iters         30 iters            30 iters 


      Screening Tolerance Information
      -------------------------------
          Density screening/tol_rho:  1.00D-11
          AO Gaussian exp screening on grid/accAOfunc:  16
          CD Gaussian exp screening on grid/accCDfunc:  20
          XC Gaussian exp screening on grid/accXCfunc:  20
          Schwarz screening/accCoul:  1.00D-12

      Dispersion Parameters
      ---------------------

           DFT-D3BJ Model   
          s6 scale factor  :        1.000000000000
          s8 scale factor  :        1.988900000000
          a1 parameter     :        0.398100000000
          a2 parameter     :        4.421100000000
              vdW contrib  :       -0.000140658361


 Loading old vectors from job with title :

degradation_freq


      Symmetry analysis of molecular orbitals - initial
      -------------------------------------------------

  Numbering of irreducible representations: 

     1 a1g         2 a1u         3 a2g         4 a2u         5 b1g     
     6 b1u         7 b2g         8 b2u         9 eg         10 eu      

  Orbital symmetries:

     1 a1g         2 a2u         3 a1g         4 a2u         5 a1g     
     6 a2u     

   Time after variat. SCF:      2.7
   Time prior to 1st pass:      2.7

 #quartets = 1.560D+02 #integrals = 1.560D+02 #direct =  0.0% #cached =100.0%


 Integral file          = ./degradation_start.aoints.00
 Record size in doubles =  65536        No. of integs per rec  =  43688
 Max. records in memory =      1        Max. records in file   = 119598
 No. of bits per label  =      8        No. of bits per value  =     64


File balance: exchanges=     0  moved=     0  time=   0.0


 Grid_pts file          = ./degradation_start.gridpts.00
 Record size in doubles =  12289        No. of grid_pts per rec  =   3070
 Max. records in memory =      2        Max. recs in file   =    637811

 Grid integrated density:       2.000000024402
 Requested integration accuracy:   0.10E-13

           Memory utilization after 1st SCF pass: 
           Heap Space remaining (MW):      229.28           229281528
          Stack Space remaining (MW):      229.38           229375820

   convergence    iter        energy       DeltaE   RMS-Dens  Diis-err    time
 ---------------- ----- ----------------- --------- --------- ---------  ------
     COSMO solvation phase
 d= 0,ls=0.0,diis     1     -1.1769009688 -1.89D+00  1.67D-04  7.31D-07     3.0
 Grid integrated density:       2.000000024423
 Requested integration accuracy:   0.10E-13
 d= 0,ls=0.0,diis     2     -1.1769011427 -1.74D-07  8.95D-06  1.58D-08     3.2
 Grid integrated density:       2.000000024420
 Requested integration accuracy:   0.10E-13
 d= 0,ls=0.0,diis     3     -1.1769011446 -1.88D-09  2.11D-06  3.96D-10     3.5


         Total DFT energy =       -1.176901144608
      One electron energy =       -2.495224684654
           Coulomb energy =        1.304326762793
    Exchange-Corr. energy =       -0.701429380598
 Nuclear repulsion energy =        0.713248486253

    Dispersion correction =       -0.000140658361

             COSMO energy =        0.002318329959

 Numeric. integr. density =        2.000000024420

     Total iterative time =      0.8s


                                   COSMO solvation results
                                   -----------------------

                 gas phase energy =         0.000000000000
                 sol phase energy =        -1.176901144608
 (electrostatic) solvation energy =         1.176901144608 (  738.52 kcal/mol)

                  Occupations of the irreducible representations
                  ----------------------------------------------

                     irrep           alpha         beta
                     --------     --------     --------
                     a1g               1.0          1.0
                     a1u               0.0          0.0
                     a2g               0.0          0.0
                     a2u               0.0          0.0
                     b1g               0.0          0.0
                     b1u               0.0          0.0
                     b2g               0.0          0.0
                     b2u               0.0          0.0
                     eg                0.0          0.0
                     eu                0.0          0.0


                       DFT Final Molecular Orbital Analysis
                       ------------------------------------

 Vector    1  Occ=2.000000D+00  E=-4.380680D-01  Symmetry=a1g
              MO Center=  0.0D+00,  0.0D+00, -7.3D-17, r^2= 7.4D-01
   Bfn.  Coefficient  Atom+Function         Bfn.  Coefficient  Atom+Function  
  ----- ------------  ---------------      ----- ------------  ---------------
     2      0.279747  1 H  s                  5      0.279747  2 H  s          
     1      0.202657  1 H  s                  4      0.202657  2 H  s          
     3      0.136102  1 H  s                  6      0.136102  2 H  s          

 Vector    2  Occ=0.000000D+00  E= 6.018208D-02  Symmetry=a2u
              MO Center=  0.0D+00,  0.0D+00,  8.6D-17, r^2= 3.0D+00
   Bfn.  Coefficient  Atom+Function         Bfn.  Coefficient  Atom+Function  
  ----- ------------  ---------------      ----- ------------  ---------------
     3      2.003069  1 H  s                  6     -2.003069  2 H  s          
     2      0.149828  1 H  s                  5     -0.149828  2 H  s          
     1      0.099683  1 H  s                  4     -0.099683  2 H  s          

 Vector    3  Occ=0.000000D+00  E= 1.956180D-01  Symmetry=a1g
              MO Center=  0.0D+00,  0.0D+00, -2.2D-16, r^2= 3.2D+00
   Bfn.  Coefficient  Atom+Function         Bfn.  Coefficient  Atom+Function  
  ----- ------------  ---------------      ----- ------------  ---------------
     3      0.834419  1 H  s                  6      0.834419  2 H  s          
     2     -0.681535  1 H  s                  5     -0.681535  2 H  s          
     1     -0.079120  1 H  s                  4     -0.079120  2 H  s          

 Vector    4  Occ=0.000000D+00  E= 4.753804D-01  Symmetry=a2u
              MO Center=  0.0D+00,  0.0D+00, -2.1D-16, r^2= 2.6D+00
   Bfn.  Coefficient  Atom+Function         Bfn.  Coefficient  Atom+Function  
  ----- ------------  ---------------      ----- ------------  ---------------
     3      2.395508  1 H  s                  6     -2.395508  2 H  s          
     2     -1.653256  1 H  s                  5      1.653256  2 H  s          
     1     -0.124394  1 H  s                  4      0.124394  2 H  s          

 Vector    5  Occ=0.000000D+00  E= 2.106267D+00  Symmetry=a1g
              MO Center=  0.0D+00,  0.0D+00,  2.5D-15, r^2= 1.2D+00
   Bfn.  Coefficient  Atom+Function         Bfn.  Coefficient  Atom+Function  
  ----- ------------  ---------------      ----- ------------  ---------------
     2      1.240009  1 H  s                  5      1.240009  2 H  s          
     1     -1.080882  1 H  s                  4     -1.080882  2 H  s          
     3     -0.507420  1 H  s                  6     -0.507420  2 H  s          

 Vector    6  Occ=0.000000D+00  E= 2.385599D+00  Symmetry=a2u
              MO Center=  0.0D+00,  0.0D+00, -3.2D-15, r^2= 1.0D+00
   Bfn.  Coefficient  Atom+Function         Bfn.  Coefficient  Atom+Function  
  ----- ------------  ---------------      ----- ------------  ---------------
     2      1.862463  1 H  s                  5     -1.862463  2 H  s          
     3     -1.276735  1 H  s                  6      1.276735  2 H  s          
     1     -1.123965  1 H  s                  4      1.123965  2 H  s          


 center of mass
 --------------
 x =   0.00000000 y =   0.00000000 z =   0.00000000

 moments of inertia (a.u.)
 ------------------
           0.990543184936           0.000000000000           0.000000000000
           0.000000000000           0.990543184936           0.000000000000
           0.000000000000           0.000000000000           0.000000000000

     Multipole analysis of the density
     ---------------------------------

     L   x y z        total         alpha         beta         nuclear
     -   - - -        -----         -----         ----         -------
     0   0 0 0     -0.000000     -1.000000     -1.000000      2.000000

     1   1 0 0      0.000000      0.000000      0.000000      0.000000
     1   0 1 0      0.000000      0.000000      0.000000      0.000000
     1   0 0 1      0.000000      0.000000      0.000000      0.000000

     2   2 0 0     -1.534140     -0.767070     -0.767070      0.000000
     2   1 1 0      0.000000      0.000000      0.000000      0.000000
     2   1 0 1      0.000000      0.000000      0.000000      0.000000
     2   0 2 0     -1.534140     -0.767070     -0.767070      0.000000
     2   0 1 1      0.000000      0.000000      0.000000      0.000000
     2   0 0 2     -1.224541     -1.103697     -1.103697      0.982852


 Parallel integral file used      31 records with       0 large values


 Task  times  cpu:        0.6s     wall:        0.9s


                                NWChem Input Module
                                -------------------


 Summary of allocated global arrays
-----------------------------------
  No active global arrays



                         GA Statistics for process    0
                         ------------------------------

       create   destroy   get      put      acc     scatter   gather  read&inc
calls: 1039     1039     3556     1394     1314      104        0      199     
number of processes/call -1.99e+15 -6.36e+13 1.31e+13 0.00e+00 0.00e+00
bytes total:             5.39e+05 2.29e+05 2.22e+05 8.00e+00 0.00e+00 1.59e+03
bytes remote:            8.86e+03 4.32e+03 1.15e+03 -3.20e+01 0.00e+00 0.00e+00
Max memory consumed for GA by this process: 12160 bytes

MA_summarize_allocated_blocks: starting scan ...
MA_summarize_allocated_blocks: scan completed: 0 heap blocks, 0 stack blocks
MA usage statistics:

	allocation statistics:
					      heap	     stack
					      ----	     -----
	current number of blocks	         0	         0
	maximum number of blocks	        26	        57
	current total bytes		         0	         0
	maximum total bytes		   1251352	  63701896
	maximum total K-bytes		      1252	     63702
	maximum total M-bytes		         2	        64


                                     CITATION
                                     --------
                Please cite the following reference when publishing
                           results obtained with NWChem:

          E. Apr, E. J. Bylaska, W. A. de Jong, N. Govind, K. Kowalski,
       T. P. Straatsma, M. Valiev, H. J. J. van Dam, Y. Alexeev, J. Anchell,
       V. Anisimov, F. W. Aquino, R. Atta-Fynn, J. Autschbach, N. P. Bauman,
     J. C. Becca, D. E. Bernholdt, K. Bhaskaran-Nair, S. Bogatko, P. Borowski,
        J. Boschen, J. Brabec, A. Bruner, E. Caut, Y. Chen, G. N. Chuev,
      C. J. Cramer, J. Daily, M. J. O. Deegan, T. H. Dunning Jr., M. Dupuis,
   K. G. Dyall, G. I. Fann, S. A. Fischer, A. Fonari, H. Frchtl, L. Gagliardi,
      J. Garza, N. Gawande, S. Ghosh, K. Glaesemann, A. W. Gtz, J. Hammond,
       V. Helms, E. D. Hermes, K. Hirao, S. Hirata, M. Jacquelin, L. Jensen,
   B. G. Johnson, H. Jnsson, R. A. Kendall, M. Klemm, R. Kobayashi, V. Konkov,
      S. Krishnamoorthy, M. Krishnan, Z. Lin, R. D. Lins, R. J. Littlefield,
      A. J. Logsdail, K. Lopata, W. Ma, A. V. Marenich, J. Martin del Campo,
   D. Mejia-Rodriguez, J. E. Moore, J. M. Mullin, T. Nakajima, D. R. Nascimento,
    J. A. Nichols, P. J. Nichols, J. Nieplocha, A. Otero-de-la-Roza, B. Palmer,
    A. Panyala, T. Pirojsirikul, B. Peng, R. Peverati, J. Pittner, L. Pollack,
   R. M. Richard, P. Sadayappan, G. C. Schatz, W. A. Shelton, D. W. Silverstein,
   D. M. A. Smith, T. A. Soares, D. Song, M. Swart, H. L. Taylor, G. S. Thomas,
            V. Tipparaju, D. G. Truhlar, K. Tsemekhman, T. Van Voorhis,
     . Vzquez-Mayagoitia, P. Verma, O. Villa, A. Vishnu, K. D. Vogiatzis,
        D. Wang, J. H. Weare, M. J. Williamson, T. L. Windus, K. Woliski,
        A. T. Wong, Q. Wu, C. Yang, Q. Yu, M. Zacharias, Z. Zhang, Y. Zhao,
                                and R. J. Harrison
                        "NWChem: Past, present, and future
                         J. Chem. Phys. 152, 184102 (2020)
                               doi:10.1063/5.0004997

                                      AUTHORS
                                      -------
     E. Apra, E. J. Bylaska, N. Govind, K. Kowalski, M. Valiev, W. A. de Jong,
      T. P. Straatsma, H. J. J. van Dam, D. Wang, T. L. Windus, N. P. Bauman,
       A. Panyala, J. Hammond, J. Autschbach, K. Bhaskaran-Nair, J. Brabec,
    K. Lopata, S. A. Fischer, S. Krishnamoorthy, M. Jacquelin, W. Ma, M. Klemm,
       O. Villa, Y. Chen, V. Anisimov, F. Aquino, S. Hirata, M. T. Hackler,
           Eric Hermes, L. Jensen, J. E. Moore, J. C. Becca, V. Konjkov,
            D. Mejia-Rodriguez, T. Risthaus, M. Malagoli, A. Marenich,
   A. Otero-de-la-Roza, J. Mullin, P. Nichols, R. Peverati, J. Pittner, Y. Zhao,
        P.-D. Fan, A. Fonari, M. J. Williamson, R. J. Harrison, J. R. Rehr,
      M. Dupuis, D. Silverstein, D. M. A. Smith, J. Nieplocha, V. Tipparaju,
      M. Krishnan, B. E. Van Kuiken, A. Vazquez-Mayagoitia, M. Swart, Q. Wu,
   T. Van Voorhis, A. A. Auer, M. Nooijen, L. D. Crosby, E. Brown, G. Cisneros,
     G. I. Fann, H. Fruchtl, J. Garza, K. Hirao, R. A. Kendall, J. A. Nichols,
       K. Tsemekhman, K. Wolinski, J. Anchell, D. E. Bernholdt, P. Borowski,
       T. Clark, D. Clerc, H. Dachsel, M. J. O. Deegan, K. Dyall, D. Elwood,
      E. Glendening, M. Gutowski, A. C. Hess, J. Jaffe, B. G. Johnson, J. Ju,
        R. Kobayashi, R. Kutteh, Z. Lin, R. Littlefield, X. Long, B. Meng,
      T. Nakajima, S. Niu, L. Pollack, M. Rosing, K. Glaesemann, G. Sandrone,
      M. Stave, H. Taylor, G. Thomas, J. H. van Lenthe, A. T. Wong, Z. Zhang.

 Total times  cpu:        1.6s     wall:        3.5s
