 argument  1 = react_2.nw
  NWChem w/ OpenMP: maximum threads =    1
                                         
                                         


             Northwest Computational Chemistry Package (NWChem) 7.2.3
             --------------------------------------------------------


                    Environmental Molecular Sciences Laboratory
                       Pacific Northwest National Laboratory
                                Richland, WA 99352

                              Copyright (c) 1994-2022
                       Pacific Northwest National Laboratory
                            Battelle Memorial Institute

             NWChem is an open-source computational chemistry package
                        distributed under the terms of the
                      Educational Community License (ECL) 2.0
             A copy of the license is included with this distribution
                              in the LICENSE.TXT file

                                  ACKNOWLEDGMENT
                                  --------------

            This software and its documentation were developed at the
            EMSL at Pacific Northwest National Laboratory, a multiprogram
            national laboratory, operated for the U.S. Department of Energy
            by Battelle under Contract Number DE-AC05-76RL01830. Support
            for this work was provided by the Department of Energy Office
            of Biological and Environmental Research, Office of Basic
            Energy Sciences, and the Office of Advanced Scientific Computing.


           Job information
           ---------------

    hostname        = e2524a8863a2
    program         = nwchem
    date            = Wed Sep 10 20:46:36 2025

    compiled        = Fri_Jul_11_19:03:44_2025
    source          = /opt/nwchem
    nwchem branch   = 7.2.3
    nwchem revision = N/A
    ga revision     = 5.9.2
    use scalapack   = T
    input           = react_2.nw
    prefix          = EMPTY.
    data base       = /data/EMPTY.db
    status          = startup
    nproc           =        2
    time left       =     -1s



           Memory information
           ------------------

    heap     =     16777212 doubles =      128.0 Mbytes
    stack    =     16777217 doubles =      128.0 Mbytes
    global   =     33554432 doubles =      256.0 Mbytes (distinct from heap & stack)
    total    =     67108861 doubles =      512.0 Mbytes
    verify   = yes
    hardfail = no 


           Directory information
           ---------------------

  0 permanent = /data
  0 scratch   = /data




                                NWChem Input Module
                                -------------------


                                   react_2_redox
                                   -------------

 Scaling coordinates for geometry "geometry" by  1.889725989
 (inverse scale =  0.529177249)

 C1  symmetry detected

          ------
          auto-z
          ------
  no constraints, skipping    0.0000000000000000     
  no constraints, skipping    0.0000000000000000     


                             Geometry "geometry" -> ""
                             -------------------------

 Output coordinates in angstroms (scale by  1.889725989 to convert to a.u.)

  No.       Tag          Charge          X              Y              Z
 ---- ---------------- ---------- -------------- -------------- --------------
    1 C                    6.0000    -1.21225231    -1.65810356     0.57067013
    2 C                    6.0000     0.17629773    -1.08286320     0.28292485
    3 C                    6.0000     1.13736373    -2.21799387    -0.07948566
    4 C                    6.0000     0.14165190    -0.04331907    -0.84867701
    5 N                    7.0000    -0.71215884     1.08923920    -0.55224576
    6 C                    6.0000    -0.26614598     2.19239018     0.12629902
    7 O                    8.0000     0.87154272     2.37162369     0.53529946
    8 H                    1.0000    -1.63915809    -2.12968604    -0.32111270
    9 H                    1.0000    -1.90331755    -0.87819569     0.90534018
   10 H                    1.0000    -1.16339559    -2.41434735     1.36218049
   11 H                    1.0000     0.54244229    -0.60396198     1.20075815
   12 H                    1.0000     0.81280499    -2.73756904    -0.98862906
   13 H                    1.0000     2.14853631    -1.83597181    -0.25069013
   14 H                    1.0000     1.19137468    -2.95665972     0.72805020
   15 H                    1.0000     1.15401345     0.32811985    -1.04405120
   16 H                    1.0000    -0.23582224    -0.49160723    -1.77411691
   17 H                    1.0000    -1.68802807     1.04640207    -0.81460755
   18 H                    1.0000    -1.06817052     2.93515008     0.26981511

      Atomic Mass 
      ----------- 

      C                 12.000000
      N                 14.003070
      O                 15.994910
      H                  1.007825


 Effective nuclear repulsion energy (a.u.)     313.7822665461

            Nuclear Dipole moment (a.u.) 
            ----------------------------
        X                 Y               Z
 ---------------- ---------------- ----------------
    -0.0000000000    -0.0000000000     0.0000000000



                                Z-matrix (autoz)
                                -------- 

 Units are Angstrom for bonds and degrees for angles

      Type          Name      I     J     K     L     M      Value
      ----------- --------  ----- ----- ----- ----- ----- ----------
    1 Stretch                  1     2                       1.53028
    2 Stretch                  1     8                       1.09541
    3 Stretch                  1     9                       1.09445
    4 Stretch                  1    10                       1.09580
    5 Stretch                  2     3                       1.53085
    6 Stretch                  2     4                       1.53700
    7 Stretch                  2    11                       1.09810
    8 Stretch                  3    12                       1.09628
    9 Stretch                  3    13                       1.09440
   10 Stretch                  3    14                       1.09575
   11 Stretch                  4     5                       1.44898
   12 Stretch                  4    15                       1.09591
   13 Stretch                  4    16                       1.09539
   14 Stretch                  5     6                       1.36978
   15 Stretch                  5    17                       1.01143
   16 Stretch                  6     7                       1.22219
   17 Stretch                  6    18                       1.10251
   18 Bend                     1     2     3               109.59883
   19 Bend                     1     2     4               111.85295
   20 Bend                     1     2    11               108.01853
   21 Bend                     2     1     8               111.24627
   22 Bend                     2     1     9               111.25818
   23 Bend                     2     1    10               110.78030
   24 Bend                     2     3    12               111.21649
   25 Bend                     2     3    13               110.99286
   26 Bend                     2     3    14               110.87548
   27 Bend                     2     4     5               113.03605
   28 Bend                     2     4    15               109.85657
   29 Bend                     2     4    16               110.66995
   30 Bend                     3     2     4               109.96019
   31 Bend                     3     2    11               108.17539
   32 Bend                     4     2    11               109.14295
   33 Bend                     4     5     6               122.61266
   34 Bend                     4     5    17               118.83965
   35 Bend                     5     4    15               108.41401
   36 Bend                     5     4    16               106.83759
   37 Bend                     5     6     7               125.94267
   38 Bend                     5     6    18               111.72674
   39 Bend                     6     5    17               118.47451
   40 Bend                     7     6    18               122.33027
   41 Bend                     8     1     9               108.03780
   42 Bend                     8     1    10               107.95752
   43 Bend                     9     1    10               107.40139
   44 Bend                    12     3    13               108.01370
   45 Bend                    12     3    14               107.83443
   46 Bend                    13     3    14               107.76184
   47 Bend                    15     4    16               107.84375
   48 Torsion                  1     2     3    12          62.00370
   49 Torsion                  1     2     3    13        -177.71303
   50 Torsion                  1     2     3    14         -57.97432
   51 Torsion                  1     2     4     5          60.16138
   52 Torsion                  1     2     4    15        -178.60610
   53 Torsion                  1     2     4    16         -59.62950
   54 Torsion                  2     4     5     6          87.17133
   55 Torsion                  2     4     5    17         -89.66803
   56 Torsion                  3     2     1     8         -63.71395
   57 Torsion                  3     2     1     9         175.77244
   58 Torsion                  3     2     1    10          56.37549
   59 Torsion                  3     2     4     5        -177.82295
   60 Torsion                  3     2     4    15         -56.59044
   61 Torsion                  3     2     4    16          62.38617
   62 Torsion                  4     2     1     8          58.50872
   63 Torsion                  4     2     1     9         -62.00489
   64 Torsion                  4     2     1    10         178.59816
   65 Torsion                  4     2     3    12         -61.34164
   66 Torsion                  4     2     3    13          58.94163
   67 Torsion                  4     2     3    14         178.68034
   68 Torsion                  4     5     6     7           1.31538
   69 Torsion                  4     5     6    18        -178.88795
   70 Torsion                  5     4     2    11         -59.31014
   71 Torsion                  6     5     4    15         -34.87358
   72 Torsion                  6     5     4    16        -150.86131
   73 Torsion                  7     6     5    17         178.16573
   74 Torsion                  8     1     2    11         178.64022
   75 Torsion                  9     1     2    11          58.12661
   76 Torsion                 10     1     2    11         -61.27034
   77 Torsion                 11     2     3    12         179.55146
   78 Torsion                 11     2     3    13         -60.16527
   79 Torsion                 11     2     3    14          59.57344
   80 Torsion                 11     2     4    15          61.92237
   81 Torsion                 11     2     4    16        -179.10102
   82 Torsion                 15     4     5    17         148.28706
   83 Torsion                 16     4     5    17          32.29933
   84 Torsion                 17     5     6    18          -2.03759


            XYZ format geometry
            -------------------
    18
 geometry
 C                    -1.21225231    -1.65810356     0.57067013
 C                     0.17629773    -1.08286320     0.28292485
 C                     1.13736373    -2.21799387    -0.07948566
 C                     0.14165190    -0.04331907    -0.84867701
 N                    -0.71215884     1.08923920    -0.55224576
 C                    -0.26614598     2.19239018     0.12629902
 O                     0.87154272     2.37162369     0.53529946
 H                    -1.63915809    -2.12968604    -0.32111270
 H                    -1.90331755    -0.87819569     0.90534018
 H                    -1.16339559    -2.41434735     1.36218049
 H                     0.54244229    -0.60396198     1.20075815
 H                     0.81280499    -2.73756904    -0.98862906
 H                     2.14853631    -1.83597181    -0.25069013
 H                     1.19137468    -2.95665972     0.72805020
 H                     1.15401345     0.32811985    -1.04405120
 H                    -0.23582224    -0.49160723    -1.77411691
 H                    -1.68802807     1.04640207    -0.81460755
 H                    -1.06817052     2.93515008     0.26981511

 ==============================================================================
                                internuclear distances
 ------------------------------------------------------------------------------
       center one      |      center two      | atomic units |  angstroms
 ------------------------------------------------------------------------------
    2 C                |   1 C                |     2.89182  |     1.53028
    3 C                |   2 C                |     2.89289  |     1.53085
    4 C                |   2 C                |     2.90451  |     1.53700
    5 N                |   4 C                |     2.73818  |     1.44898
    6 C                |   5 N                |     2.58851  |     1.36978
    7 O                |   6 C                |     2.30960  |     1.22219
    8 H                |   1 C                |     2.07002  |     1.09541
    9 H                |   1 C                |     2.06822  |     1.09445
   10 H                |   1 C                |     2.07076  |     1.09580
   11 H                |   2 C                |     2.07511  |     1.09810
   12 H                |   3 C                |     2.07168  |     1.09628
   13 H                |   3 C                |     2.06813  |     1.09440
   14 H                |   3 C                |     2.07066  |     1.09575
   15 H                |   4 C                |     2.07097  |     1.09591
   16 H                |   4 C                |     2.06999  |     1.09539
   17 H                |   5 N                |     1.91132  |     1.01143
   18 H                |   6 C                |     2.08345  |     1.10251
 ------------------------------------------------------------------------------
                         number of included internuclear distances:         17
 ==============================================================================



 ==============================================================================
                                 internuclear angles
 ------------------------------------------------------------------------------
        center 1       |       center 2       |       center 3       |  degrees
 ------------------------------------------------------------------------------
    2 C                |   1 C                |   8 H                |   111.25
    2 C                |   1 C                |   9 H                |   111.26
    2 C                |   1 C                |  10 H                |   110.78
    8 H                |   1 C                |   9 H                |   108.04
    8 H                |   1 C                |  10 H                |   107.96
    9 H                |   1 C                |  10 H                |   107.40
    1 C                |   2 C                |   3 C                |   109.60
    1 C                |   2 C                |   4 C                |   111.85
    1 C                |   2 C                |  11 H                |   108.02
    3 C                |   2 C                |   4 C                |   109.96
    3 C                |   2 C                |  11 H                |   108.18
    4 C                |   2 C                |  11 H                |   109.14
    2 C                |   3 C                |  12 H                |   111.22
    2 C                |   3 C                |  13 H                |   110.99
    2 C                |   3 C                |  14 H                |   110.88
   12 H                |   3 C                |  13 H                |   108.01
   12 H                |   3 C                |  14 H                |   107.83
   13 H                |   3 C                |  14 H                |   107.76
    2 C                |   4 C                |   5 N                |   113.04
    2 C                |   4 C                |  15 H                |   109.86
    2 C                |   4 C                |  16 H                |   110.67
    5 N                |   4 C                |  15 H                |   108.41
    5 N                |   4 C                |  16 H                |   106.84
   15 H                |   4 C                |  16 H                |   107.84
    4 C                |   5 N                |   6 C                |   122.61
    4 C                |   5 N                |  17 H                |   118.84
    6 C                |   5 N                |  17 H                |   118.47
    5 N                |   6 C                |   7 O                |   125.94
    5 N                |   6 C                |  18 H                |   111.73
    7 O                |   6 C                |  18 H                |   122.33
 ------------------------------------------------------------------------------
                            number of included internuclear angles:         30
 ==============================================================================





 Summary of "ao basis" -> "" (cartesian)
 ------------------------------------------------------------------------------
       Tag                 Description            Shells   Functions and Types
 ---------------- ------------------------------  ------  ---------------------
 *                         def2-SV(P)                 on all atoms 


  pbe96 is a nonlocal functional; adding pw91lda local functional. 


                           NWChem Geometry Optimization
                           ----------------------------




                                   react_2_redox


  no constraints, skipping    0.0000000000000000     
 maximum gradient threshold         (gmax) =   0.000450
 rms gradient threshold             (grms) =   0.000300
 maximum cartesian step threshold   (xmax) =   0.001800
 rms cartesian step threshold       (xrms) =   0.001200
 fixed trust radius                (trust) =   0.300000
 maximum step size to saddle      (sadstp) =   0.100000
 energy precision                  (eprec) =   5.0D-06
 maximum number of steps          (nptopt) =  300
 initial hessian option           (inhess) =    0
 line search option               (linopt) =    1
 hessian update option            (modupd) =    1
 saddle point option              (modsad) =    0
 initial eigen-mode to follow     (moddir) =    0
 initial variable to follow       (vardir) =    0
 follow first negative mode     (firstneg) =    T
 apply conjugacy                    (opcg) =    F
 source of zmatrix                         =   autoz   


          -------------------
          Energy Minimization
          -------------------


 Names of Z-matrix variables 
    1              2              3              4              5         
    6              7              8              9             10         
   11             12             13             14             15         
   16             17             18             19             20         
   21             22             23             24             25         
   26             27             28             29             30         
   31             32             33             34             35         
   36             37             38             39             40         
   41             42             43             44             45         
   46             47             48             49             50         
   51             52             53             54             55         
   56             57             58             59             60         
   61             62             63             64             65         
   66             67             68             69             70         
   71             72             73             74             75         
   76             77             78             79             80         
   81             82             83             84         

 Variables with the same non-blank name are constrained to be equal


 Using diagonal initial Hessian 
 Scaling for Hessian diagonals: bonds = 1.00  angles = 0.25  torsions = 0.10

          --------
          Step   0
          --------


                         Geometry "geometry" -> "geometry"
                         ---------------------------------

 Output coordinates in angstroms (scale by  1.889725989 to convert to a.u.)

  No.       Tag          Charge          X              Y              Z
 ---- ---------------- ---------- -------------- -------------- --------------
    1 C                    6.0000    -1.21225231    -1.65810356     0.57067013
    2 C                    6.0000     0.17629773    -1.08286320     0.28292485
    3 C                    6.0000     1.13736373    -2.21799387    -0.07948566
    4 C                    6.0000     0.14165190    -0.04331907    -0.84867701
    5 N                    7.0000    -0.71215884     1.08923920    -0.55224576
    6 C                    6.0000    -0.26614598     2.19239018     0.12629902
    7 O                    8.0000     0.87154272     2.37162369     0.53529946
    8 H                    1.0000    -1.63915809    -2.12968604    -0.32111270
    9 H                    1.0000    -1.90331755    -0.87819569     0.90534018
   10 H                    1.0000    -1.16339559    -2.41434735     1.36218049
   11 H                    1.0000     0.54244229    -0.60396198     1.20075815
   12 H                    1.0000     0.81280499    -2.73756904    -0.98862906
   13 H                    1.0000     2.14853631    -1.83597181    -0.25069013
   14 H                    1.0000     1.19137468    -2.95665972     0.72805020
   15 H                    1.0000     1.15401345     0.32811985    -1.04405120
   16 H                    1.0000    -0.23582224    -0.49160723    -1.77411691
   17 H                    1.0000    -1.68802807     1.04640207    -0.81460755
   18 H                    1.0000    -1.06817052     2.93515008     0.26981511

      Atomic Mass 
      ----------- 

      C                 12.000000
      N                 14.003070
      O                 15.994910
      H                  1.007825


 Effective nuclear repulsion energy (a.u.)     313.7822665461

            Nuclear Dipole moment (a.u.) 
            ----------------------------
        X                 Y               Z
 ---------------- ---------------- ----------------
    -0.0000000000    -0.0000000000     0.0000000000


                                 NWChem DFT Module
                                 -----------------


                                   react_2_redox


                      Basis "ao basis" -> "ao basis" (cartesian)
                      -----
  C (Carbon)
  ----------
            Exponent  Coefficients 
       -------------- ---------------------------------------------------------
  1 S  1.23840169E+03  0.005457
  1 S  1.86290050E+02  0.040638
  1 S  4.22511763E+01  0.180256
  1 S  1.16765579E+01  0.463151
  1 S  3.59305065E+00  0.440872

  2 S  4.02451474E-01  1.000000

  3 S  1.30901827E-01  1.000000

  4 P  9.46809706E+00  0.038388
  4 P  2.01035451E+00  0.211170
  4 P  5.47710047E-01  0.513282

  5 P  1.52686138E-01  1.000000

  6 D  8.00000000E-01  1.000000

  N (Nitrogen)
  ------------
            Exponent  Coefficients 
       -------------- ---------------------------------------------------------
  1 S  1.71284159E+03 -0.005393
  1 S  2.57648127E+02 -0.040222
  1 S  5.84582459E+01 -0.179311
  1 S  1.61983679E+01 -0.463763
  1 S  5.00526008E+00 -0.441714

  2 S  5.87318566E-01  1.000000

  3 S  1.87645923E-01  1.000000

  4 P  1.35714702E+01 -0.040072
  4 P  2.92573729E+00 -0.218070
  4 P  7.99277508E-01 -0.512945

  5 P  2.19543480E-01  1.000000

  6 D  1.00000000E+00  1.000000

  O (Oxygen)
  ----------
            Exponent  Coefficients 
       -------------- ---------------------------------------------------------
  1 S  2.26617678E+03 -0.005343
  1 S  3.40870102E+02 -0.039890
  1 S  7.73631352E+01 -0.178539
  1 S  2.14796449E+01 -0.464277
  1 S  6.65894331E+00 -0.443097

  2 S  8.09759757E-01  1.000000

  3 S  2.55307722E-01  1.000000

  4 P  1.77215043E+01  0.043395
  4 P  3.86355054E+00  0.230941
  4 P  1.04809209E+00  0.513753

  5 P  2.76415444E-01  1.000000

  6 D  1.20000000E+00  1.000000

  H (Hydrogen)
  ------------
            Exponent  Coefficients 
       -------------- ---------------------------------------------------------
  1 S  1.30107010E+01  0.019682
  1 S  1.96225720E+00  0.137965
  1 S  4.44537960E-01  0.478319

  2 S  1.21949620E-01  1.000000



 Summary of "ao basis" -> "ao basis" (cartesian)
 ------------------------------------------------------------------------------
       Tag                 Description            Shells   Functions and Types
 ---------------- ------------------------------  ------  ---------------------
 C                         def2-SV(P)                6       15   3s2p1d
 N                         def2-SV(P)                6       15   3s2p1d
 O                         def2-SV(P)                6       15   3s2p1d
 H                         def2-SV(P)                2        2   2s




 Summary of "ao basis" -> "ao basis" (cartesian)
 ------------------------------------------------------------------------------
       Tag                 Description            Shells   Functions and Types
 ---------------- ------------------------------  ------  ---------------------
 C                         def2-SV(P)                6       15   3s2p1d
 N                         def2-SV(P)                6       15   3s2p1d
 O                         def2-SV(P)                6       15   3s2p1d
 H                         def2-SV(P)                2        2   2s


  Caching 1-el integrals 

            General Information
            -------------------
          SCF calculation type: DFT
          Wavefunction type:  closed shell.
          No. of atoms     :    18
          No. of electrons :    56
           Alpha electrons :    28
            Beta electrons :    28
          Charge           :     0
          Spin multiplicity:     1
          Use of symmetry is: off; symmetry adaption is: off
          Maximum number of iterations:  50
          AO basis - number of functions:   127
                     number of shells:    64
          Convergence on energy requested:  1.00D-06
          Convergence on density requested:  1.00D-05
          Convergence on gradient requested:  5.00D-04

              XC Information
              --------------
          PerdewBurkeErnzerhof Exchange Functional  1.000          
            Perdew 1991 LDA Correlation Functional  1.000 local    
           PerdewBurkeErnz. Correlation Functional  1.000 non-local

             Grid Information
             ----------------
          Grid used for XC integration:  xcoarse   
          Radial quadrature: Mura-Knowles        
          Angular quadrature: Lebedev. 
          Tag              B.-S. Rad. Rad. Pts. Rad. Cut. Ang. Pts.
          ---              ---------- --------- --------- ---------
          C                   0.70       21          12.0       194
          N                   0.65       21          11.0       194
          O                   0.60       21          12.0       194
          H                   0.35       21          13.0       194
          Grid pruning is: on 
          Number of quadrature shells:   378
          Spatial weights used:  Erf1

          Convergence Information
          -----------------------
          Convergence aids based upon iterative change in 
          total energy or number of iterations. 
          Levelshifting, if invoked, occurs when the 
          HOMO/LUMO gap drops below (HL_TOL):  1.00D-02
          DIIS, if invoked, will attempt to extrapolate 
          using up to (NFOCK): 10 stored Fock matrices.

                    Damping( 0%)  Levelshifting(0.5)       DIIS
                  --------------- ------------------- ---------------
          dE  on:    start            ASAP                start   
          dE off:    2 iters         50 iters            50 iters 


      Screening Tolerance Information
      -------------------------------
          Density screening/tol_rho:  1.00D-10
          AO Gaussian exp screening on grid/accAOfunc:  14
          CD Gaussian exp screening on grid/accCDfunc:  20
          XC Gaussian exp screening on grid/accXCfunc:  20
          Schwarz screening/accCoul:  1.00D-08

      Dispersion Parameters
      ---------------------

             DFT-D3 Model   
          s6 scale factor  :        1.000000000000
          s8 scale factor  :        0.722000000000
          sr6 scale factor :        1.217000000000
          sr8 scale factor :        1.000000000000
              vdW contrib  :       -0.007735271145


      Superposition of Atomic Density Guess
      -------------------------------------

 Sum of atomic energies:        -322.55145719

      Non-variational initial energy
      ------------------------------

 Total energy =    -327.205318
 1-e energy   =   -1057.069384
 2-e energy   =     416.081799
 HOMO         =      -0.311575
 LUMO         =       0.037321

   Time after variat. SCF:      0.3
   Time prior to 1st pass:      0.3
 Local filesystem for scratch_dir

 Integral file          = /data/EMPTY.aoints.0
 Record size in doubles =  65536        No. of integs per rec  =  43688
 Max. records in memory =      0        Max. records in file   =  13384
 No. of bits per label  =      8        No. of bits per value  =     64


 #quartets = 1.755D+06 #integrals = 2.449D+07 #direct =  0.0% #cached =100.0%


File balance: exchanges=     1  moved=    12  time=   0.0

 Local filesystem for scratch_dir

 Grid_pts file          = /data/EMPTY.gridpts.0
 Record size in doubles =  12289        No. of grid_pts per rec  =   3070
 Max. records in memory =     15        Max. recs in file   =     69965

 Grid integrated density:      55.994211692356
 Requested integration accuracy:   0.10E-03

           Memory utilization after 1st SCF pass: 
           Heap Space remaining (MW):       16.54            16543948
          Stack Space remaining (MW):       16.78            16776036

   convergence    iter        energy       DeltaE   RMS-Dens  Diis-err    time
 ---------------- ----- ----------------- --------- --------- ---------  ------
 d= 0,ls=0.0,diis     1   -326.3327030510 -6.40D+02  2.94D-02  1.43D+00     1.4
 d= 0,ls=0.0,diis     2   -325.3272291886  1.01D+00  2.56D-02  1.05D+01     1.7
 d= 0,ls=0.0,diis     3   -326.4551750121 -1.13D+00  4.51D-03  2.94D-01     2.0
 d= 0,ls=0.0,diis     4   -326.4690698395 -1.39D-02  2.04D-03  1.57D-01     2.2
 d= 0,ls=0.0,diis     5   -326.4857727475 -1.67D-02  5.48D-04  6.04D-03     2.5
  Resetting Diis
 d= 0,ls=0.0,diis     6   -326.4863264264 -5.54D-04  2.06D-04  7.41D-04     2.8
 d= 0,ls=0.0,diis     7   -326.4864149176 -8.85D-05  1.16D-04  3.46D-05     3.1
 d= 0,ls=0.0,diis     8   -326.4863995843  1.53D-05  8.23D-05  1.80D-04     3.4
 d= 0,ls=0.0,diis     9   -326.4864181751 -1.86D-05  2.18D-05  1.26D-05     3.7
 d= 0,ls=0.0,diis    10   -326.4864193952 -1.22D-06  5.04D-06  5.63D-07     4.0
 d= 0,ls=0.0,diis    11   -326.4864194656 -7.04D-08  7.07D-07  1.70D-08     4.2


         Total DFT energy =     -326.486419465625
      One electron energy =    -1063.540706542347
           Coulomb energy =      469.485577423885
    Exchange-Corr. energy =      -46.205821622134
 Nuclear repulsion energy =      313.782266546116

    Dispersion correction =       -0.007735271145

 Numeric. integr. density =       55.994479043702

     Total iterative time =      3.9s



                       DFT Final Molecular Orbital Analysis
                       ------------------------------------

 Vector    1  Occ=2.000000D+00  E=-1.874118D+01
              MO Center=  8.7D-01,  2.4D+00,  5.4D-01, r^2= 1.5D-02
   Bfn.  Coefficient  Atom+Function         Bfn.  Coefficient  Atom+Function  
  ----- ------------  ---------------      ----- ------------  ---------------
    91      0.985110   7 O  s                92     -0.051657   7 O  s         

 Vector    2  Occ=2.000000D+00  E=-1.403878D+01
              MO Center= -7.1D-01,  1.1D+00, -5.5D-01, r^2= 2.0D-02
   Bfn.  Coefficient  Atom+Function         Bfn.  Coefficient  Atom+Function  
  ----- ------------  ---------------      ----- ------------  ---------------
    61      0.985318   5 N  s                62     -0.056267   5 N  s         
    63      0.033471   5 N  s         

 Vector    3  Occ=2.000000D+00  E=-9.989233D+00
              MO Center= -2.7D-01,  2.2D+00,  1.3D-01, r^2= 2.8D-02
   Bfn.  Coefficient  Atom+Function         Bfn.  Coefficient  Atom+Function  
  ----- ------------  ---------------      ----- ------------  ---------------
    76      0.986601   6 C  s                77      0.055152   6 C  s         

 Vector    4  Occ=2.000000D+00  E=-9.941015D+00
              MO Center=  1.4D-01, -4.3D-02, -8.5D-01, r^2= 2.8D-02
   Bfn.  Coefficient  Atom+Function         Bfn.  Coefficient  Atom+Function  
  ----- ------------  ---------------      ----- ------------  ---------------
    46      0.986549   4 C  s                47      0.057232   4 C  s         
    48     -0.047755   4 C  s         

 Vector    5  Occ=2.000000D+00  E=-9.914988D+00
              MO Center=  1.8D-01, -1.1D+00,  2.8D-01, r^2= 2.8D-02
   Bfn.  Coefficient  Atom+Function         Bfn.  Coefficient  Atom+Function  
  ----- ------------  ---------------      ----- ------------  ---------------
    16      0.986627   2 C  s                18     -0.078075   2 C  s         
    17      0.058645   2 C  s         

 Vector    6  Occ=2.000000D+00  E=-9.899583D+00
              MO Center= -1.2D+00, -1.7D+00,  5.7D-01, r^2= 2.8D-02
   Bfn.  Coefficient  Atom+Function         Bfn.  Coefficient  Atom+Function  
  ----- ------------  ---------------      ----- ------------  ---------------
     1      0.986394   1 C  s                 2      0.057302   1 C  s         
     3     -0.049048   1 C  s         

 Vector    7  Occ=2.000000D+00  E=-9.897378D+00
              MO Center=  1.1D+00, -2.2D+00, -7.9D-02, r^2= 2.8D-02
   Bfn.  Coefficient  Atom+Function         Bfn.  Coefficient  Atom+Function  
  ----- ------------  ---------------      ----- ------------  ---------------
    31      0.986394   3 C  s                32      0.057305   3 C  s         
    33     -0.049173   3 C  s         

 Vector    8  Occ=2.000000D+00  E=-9.269141D-01
              MO Center=  3.3D-01,  2.1D+00,  2.6D-01, r^2= 9.5D-01
   Bfn.  Coefficient  Atom+Function         Bfn.  Coefficient  Atom+Function  
  ----- ------------  ---------------      ----- ------------  ---------------
    92      0.442372   7 O  s                77      0.309971   6 C  s         
    91      0.221969   7 O  s                93      0.190209   7 O  s         
    62      0.185298   5 N  s                76     -0.161135   6 C  s         
    79      0.146154   6 C  px               94     -0.146035   7 O  px        
    61      0.092926   5 N  s                78      0.060104   6 C  s         

 Vector    9  Occ=2.000000D+00  E=-8.372029D-01
              MO Center= -4.0D-01,  1.2D+00, -3.8D-01, r^2= 1.7D+00
   Bfn.  Coefficient  Atom+Function         Bfn.  Coefficient  Atom+Function  
  ----- ------------  ---------------      ----- ------------  ---------------
    62      0.440787   5 N  s                92     -0.243573   7 O  s         
    61      0.219383   5 N  s                47      0.188964   4 C  s         
    63      0.161517   5 N  s                79     -0.137704   6 C  px        
   124      0.136179  17 H  s                91     -0.119272   7 O  s         
    80     -0.104373   6 C  py               46     -0.101184   4 C  s         

 Vector   10  Occ=2.000000D+00  E=-7.261609D-01
              MO Center=  1.6D-02, -1.1D+00,  6.5D-02, r^2= 2.6D+00
   Bfn.  Coefficient  Atom+Function         Bfn.  Coefficient  Atom+Function  
  ----- ------------  ---------------      ----- ------------  ---------------
    17      0.325496   2 C  s                32      0.210016   3 C  s         
     2      0.205349   1 C  s                16     -0.171025   2 C  s         
    47      0.161525   4 C  s                62     -0.136176   5 N  s         
    31     -0.113178   3 C  s                 1     -0.111351   1 C  s         
    46     -0.085663   4 C  s               112      0.085438  11 H  s         

 Vector   11  Occ=2.000000D+00  E=-6.328683D-01
              MO Center= -2.5D-01, -5.7D-03, -3.5D-01, r^2= 3.7D+00
   Bfn.  Coefficient  Atom+Function         Bfn.  Coefficient  Atom+Function  
  ----- ------------  ---------------      ----- ------------  ---------------
    47      0.350656   4 C  s                 2     -0.197620   1 C  s         
    65      0.198216   5 N  py               77     -0.173447   6 C  s         
    46     -0.171128   4 C  s                32     -0.139648   3 C  s         
   122      0.124592  16 H  s                79      0.118608   6 C  px        
   120      0.118504  15 H  s                20      0.101042   2 C  py        

 Vector   12  Occ=2.000000D+00  E=-6.162099D-01
              MO Center=  1.9D-03, -1.8D+00,  2.1D-01, r^2= 3.1D+00
   Bfn.  Coefficient  Atom+Function         Bfn.  Coefficient  Atom+Function  
  ----- ------------  ---------------      ----- ------------  ---------------
    32     -0.344842   3 C  s                 2      0.330375   1 C  s         
    31      0.173462   3 C  s                 1     -0.166205   1 C  s         
    19     -0.141543   2 C  px              116     -0.131127  13 H  s         
   108      0.128456   9 H  s               114     -0.122343  12 H  s         
   106      0.119426   8 H  s               118     -0.119006  14 H  s         

 Vector   13  Occ=2.000000D+00  E=-5.414218D-01
              MO Center= -3.4D-01,  5.3D-01, -2.8D-01, r^2= 4.0D+00
   Bfn.  Coefficient  Atom+Function         Bfn.  Coefficient  Atom+Function  
  ----- ------------  ---------------      ----- ------------  ---------------
    77      0.242262   6 C  s               124     -0.229847  17 H  s         
    64     -0.210770   5 N  px               65     -0.186417   5 N  py        
    66     -0.163545   5 N  pz               17      0.161524   2 C  s         
    92     -0.148684   7 O  s                32     -0.144285   3 C  s         
    93     -0.131249   7 O  s                49      0.124315   4 C  px        

 Vector   14  Occ=2.000000D+00  E=-5.075458D-01
              MO Center= -2.8D-01, -3.9D-01, -8.6D-02, r^2= 4.3D+00
   Bfn.  Coefficient  Atom+Function         Bfn.  Coefficient  Atom+Function  
  ----- ------------  ---------------      ----- ------------  ---------------
    17      0.281452   2 C  s                64      0.278619   5 N  px        
   124      0.209329  17 H  s               112      0.150503  11 H  s         
     2     -0.146268   1 C  s                50     -0.133807   4 C  py        
    16     -0.129282   2 C  s                67     -0.123637   5 N  px        
    32     -0.121479   3 C  s                 4      0.110323   1 C  px        

 Vector   15  Occ=2.000000D+00  E=-4.869852D-01
              MO Center= -2.6D-01,  9.2D-01, -2.5D-01, r^2= 4.1D+00
   Bfn.  Coefficient  Atom+Function         Bfn.  Coefficient  Atom+Function  
  ----- ------------  ---------------      ----- ------------  ---------------
   126      0.228087  18 H  s                80      0.222156   6 C  py        
   122      0.179751  16 H  s                64      0.163937   5 N  px        
    50     -0.154801   4 C  py               51     -0.154787   4 C  pz        
    77      0.154174   6 C  s                79     -0.151952   6 C  px        
    47      0.144785   4 C  s                21     -0.137449   2 C  pz        

 Vector   16  Occ=2.000000D+00  E=-4.181424D-01
              MO Center= -9.8D-02,  2.5D-01,  7.9D-02, r^2= 5.5D+00
   Bfn.  Coefficient  Atom+Function         Bfn.  Coefficient  Atom+Function  
  ----- ------------  ---------------      ----- ------------  ---------------
    80      0.244192   6 C  py               65      0.208586   5 N  py        
   126      0.196821  18 H  s                21      0.195697   2 C  pz        
    50      0.195713   4 C  py                6      0.151921   1 C  pz        
    36      0.125451   3 C  pz               93     -0.121517   7 O  s         
   118      0.115385  14 H  s                94     -0.114283   7 O  px        

 Vector   17  Occ=2.000000D+00  E=-4.122344D-01
              MO Center=  4.4D-02, -2.4D-01, -2.4D-01, r^2= 4.0D+00
   Bfn.  Coefficient  Atom+Function         Bfn.  Coefficient  Atom+Function  
  ----- ------------  ---------------      ----- ------------  ---------------
    49      0.264370   4 C  px              120      0.216689  15 H  s         
    65     -0.169934   5 N  py               19      0.160999   2 C  px        
     6      0.149083   1 C  pz               51     -0.146324   4 C  pz        
   110      0.138593  10 H  s                64      0.124993   5 N  px        
   124      0.122940  17 H  s               114     -0.115461  12 H  s         

 Vector   18  Occ=2.000000D+00  E=-4.040893D-01
              MO Center= -4.2D-02, -1.1D+00,  8.9D-02, r^2= 3.9D+00
   Bfn.  Coefficient  Atom+Function         Bfn.  Coefficient  Atom+Function  
  ----- ------------  ---------------      ----- ------------  ---------------
     4      0.225450   1 C  px               20     -0.226208   2 C  py        
    34     -0.219266   3 C  px              108     -0.199258   9 H  s         
   116     -0.188543  13 H  s                51     -0.162094   4 C  pz        
     5     -0.135370   1 C  py               23     -0.121113   2 C  py        
    66      0.118070   5 N  pz               36      0.112360   3 C  pz        

 Vector   19  Occ=2.000000D+00  E=-3.588497D-01
              MO Center= -5.6D-01, -9.4D-01, -1.0D-01, r^2= 3.8D+00
   Bfn.  Coefficient  Atom+Function         Bfn.  Coefficient  Atom+Function  
  ----- ------------  ---------------      ----- ------------  ---------------
     5      0.284727   1 C  py              122      0.221190  16 H  s         
   106     -0.212323   8 H  s                51     -0.195341   4 C  pz        
   108      0.173150   9 H  s                19     -0.153646   2 C  px        
    65     -0.154175   5 N  py               35     -0.152131   3 C  py        
     6      0.143429   1 C  pz               50     -0.139470   4 C  py        

 Vector   20  Occ=2.000000D+00  E=-3.536987D-01
              MO Center=  6.2D-01,  1.1D+00,  2.7D-01, r^2= 5.2D+00
   Bfn.  Coefficient  Atom+Function         Bfn.  Coefficient  Atom+Function  
  ----- ------------  ---------------      ----- ------------  ---------------
    94     -0.299110   7 O  px               79      0.289779   6 C  px        
    96     -0.253367   7 O  pz               93     -0.242534   7 O  s         
    35      0.175759   3 C  py               92     -0.175648   7 O  s         
    97     -0.157163   7 O  px               99     -0.140274   7 O  pz        
    66      0.128214   5 N  pz               77      0.127282   6 C  s         

 Vector   21  Occ=2.000000D+00  E=-3.473379D-01
              MO Center= -9.6D-03,  1.2D+00,  1.6D-01, r^2= 4.6D+00
   Bfn.  Coefficient  Atom+Function         Bfn.  Coefficient  Atom+Function  
  ----- ------------  ---------------      ----- ------------  ---------------
    81      0.275263   6 C  pz               94     -0.254369   7 O  px        
    95     -0.193465   7 O  py               80     -0.184209   6 C  py        
    66     -0.179205   5 N  pz              110      0.154616  10 H  s         
    96      0.144193   7 O  pz               97     -0.140875   7 O  px        
     6      0.138468   1 C  pz               84      0.132215   6 C  pz        

 Vector   22  Occ=2.000000D+00  E=-3.435897D-01
              MO Center=  2.9D-01, -1.7D+00, -9.6D-02, r^2= 4.5D+00
   Bfn.  Coefficient  Atom+Function         Bfn.  Coefficient  Atom+Function  
  ----- ------------  ---------------      ----- ------------  ---------------
    36      0.316087   3 C  pz              114     -0.267640  12 H  s         
     6     -0.225051   1 C  pz              106      0.186472   8 H  s         
   118      0.179658  14 H  s                39      0.150571   3 C  pz        
    34      0.138929   3 C  px              110     -0.121479  10 H  s         
   122      0.111794  16 H  s                 9     -0.111087   1 C  pz        

 Vector   23  Occ=2.000000D+00  E=-3.326102D-01
              MO Center=  4.7D-01, -8.6D-01, -5.2D-02, r^2= 5.4D+00
   Bfn.  Coefficient  Atom+Function         Bfn.  Coefficient  Atom+Function  
  ----- ------------  ---------------      ----- ------------  ---------------
    49     -0.237781   4 C  px               35      0.235112   3 C  py        
   118     -0.209952  14 H  s               120     -0.206234  15 H  s         
   116      0.185272  13 H  s               110      0.161648  10 H  s         
    94      0.160689   7 O  px                6      0.152720   1 C  pz        
    36     -0.130429   3 C  pz              124     -0.131004  17 H  s         

 Vector   24  Occ=2.000000D+00  E=-3.044633D-01
              MO Center=  2.3D-02, -5.4D-01,  2.4D-01, r^2= 5.1D+00
   Bfn.  Coefficient  Atom+Function         Bfn.  Coefficient  Atom+Function  
  ----- ------------  ---------------      ----- ------------  ---------------
    96     -0.221397   7 O  pz               20      0.215504   2 C  py        
    50     -0.208174   4 C  py              110      0.206665  10 H  s         
    51      0.199360   4 C  pz                5     -0.179092   1 C  py        
    81     -0.163312   6 C  pz              118      0.157097  14 H  s         
    21     -0.154855   2 C  pz               35     -0.153864   3 C  py        

 Vector   25  Occ=2.000000D+00  E=-2.966913D-01
              MO Center=  2.2D-02, -1.4D+00,  2.4D-01, r^2= 3.2D+00
   Bfn.  Coefficient  Atom+Function         Bfn.  Coefficient  Atom+Function  
  ----- ------------  ---------------      ----- ------------  ---------------
    34      0.240458   3 C  px              108     -0.227618   9 H  s         
    21      0.222556   2 C  pz               19     -0.210734   2 C  px        
     4      0.205159   1 C  px              112      0.169893  11 H  s         
    36     -0.163002   3 C  pz              116      0.157309  13 H  s         
     6     -0.154166   1 C  pz               20      0.142210   2 C  py        

 Vector   26  Occ=2.000000D+00  E=-2.908842D-01
              MO Center=  1.4D-01, -1.2D+00,  1.0D-01, r^2= 3.1D+00
   Bfn.  Coefficient  Atom+Function         Bfn.  Coefficient  Atom+Function  
  ----- ------------  ---------------      ----- ------------  ---------------
   112     -0.279538  11 H  s                 4      0.265198   1 C  px        
    19     -0.256370   2 C  px               20     -0.182851   2 C  py        
   114     -0.169696  12 H  s               116      0.162970  13 H  s         
     7      0.148570   1 C  px              113     -0.149309  11 H  s         
   106     -0.146085   8 H  s               120      0.146424  15 H  s         

 Vector   27  Occ=2.000000D+00  E=-2.174276D-01
              MO Center= -5.7D-02,  1.2D+00, -1.7D-01, r^2= 2.9D+00
   Bfn.  Coefficient  Atom+Function         Bfn.  Coefficient  Atom+Function  
  ----- ------------  ---------------      ----- ------------  ---------------
    66      0.392558   5 N  pz               96      0.344019   7 O  pz        
    69     -0.336568   5 N  pz               99      0.251827   7 O  pz        
    65     -0.219244   5 N  py               68      0.204854   5 N  py        
    20      0.130709   2 C  py               21     -0.130209   2 C  pz        
    18      0.118454   2 C  s                51      0.116007   4 C  pz        

 Vector   28  Occ=2.000000D+00  E=-2.025641D-01
              MO Center=  4.8D-01,  2.3D+00,  3.9D-01, r^2= 1.6D+00
   Bfn.  Coefficient  Atom+Function         Bfn.  Coefficient  Atom+Function  
  ----- ------------  ---------------      ----- ------------  ---------------
    95      0.538712   7 O  py               98      0.374952   7 O  py        
    63      0.368504   5 N  s               126     -0.220474  18 H  s         
   127     -0.203316  18 H  s                94     -0.169265   7 O  px        
    96      0.162340   7 O  pz               83      0.140739   6 C  py        
    66     -0.135645   5 N  pz               69      0.129234   5 N  pz        

 Vector   29  Occ=0.000000D+00  E=-7.937574D-03
              MO Center= -4.6D-02,  1.9D+00,  9.5D-02, r^2= 2.4D+00
   Bfn.  Coefficient  Atom+Function         Bfn.  Coefficient  Atom+Function  
  ----- ------------  ---------------      ----- ------------  ---------------
    18      0.593798   2 C  s                84      0.486435   6 C  pz        
    81      0.473328   6 C  pz               99     -0.360309   7 O  pz        
    96     -0.345901   7 O  pz               69     -0.267927   5 N  pz        
    83     -0.260126   6 C  py               66      0.243927   5 N  pz        
    80     -0.227534   6 C  py               54     -0.185344   4 C  pz        

 Vector   30  Occ=0.000000D+00  E= 1.854320D-02
              MO Center= -1.5D+00,  3.4D-01, -6.7D-01, r^2= 5.6D+00
   Bfn.  Coefficient  Atom+Function         Bfn.  Coefficient  Atom+Function  
  ----- ------------  ---------------      ----- ------------  ---------------
   125     -1.070028  17 H  s                 3      1.014632   1 C  s         
    48      0.673565   4 C  s               123     -0.676768  16 H  s         
    63      0.658703   5 N  s               107     -0.494997   8 H  s         
   109     -0.496011   9 H  s               127     -0.447513  18 H  s         
    33      0.419140   3 C  s                67     -0.366067   5 N  px        

 Vector   31  Occ=0.000000D+00  E= 4.126608D-02
              MO Center=  3.4D-01, -1.3D+00,  9.6D-02, r^2= 8.7D+00
   Bfn.  Coefficient  Atom+Function         Bfn.  Coefficient  Atom+Function  
  ----- ------------  ---------------      ----- ------------  ---------------
    33      1.461694   3 C  s               119     -0.822322  14 H  s         
     3      0.724736   1 C  s               117     -0.691424  13 H  s         
   115     -0.634527  12 H  s               111     -0.627000  10 H  s         
   113     -0.601067  11 H  s                18      0.597677   2 C  s         
    48      0.595068   4 C  s               121     -0.587304  15 H  s         

 Vector   32  Occ=0.000000D+00  E= 6.628031D-02
              MO Center= -3.9D-01, -1.1D+00, -3.6D-01, r^2= 6.9D+00
   Bfn.  Coefficient  Atom+Function         Bfn.  Coefficient  Atom+Function  
  ----- ------------  ---------------      ----- ------------  ---------------
   123      1.173322  16 H  s                48     -0.871988   4 C  s         
   113     -0.825892  11 H  s               115      0.828303  12 H  s         
   109     -0.748369   9 H  s                 3      0.663529   1 C  s         
   111     -0.520890  10 H  s                54      0.482549   4 C  pz        
   107      0.482671   8 H  s                 9      0.443591   1 C  pz        

 Vector   33  Occ=0.000000D+00  E= 8.177914D-02
              MO Center= -2.1D-01,  6.9D-01, -1.1D-01, r^2= 1.1D+01
   Bfn.  Coefficient  Atom+Function         Bfn.  Coefficient  Atom+Function  
  ----- ------------  ---------------      ----- ------------  ---------------
   127      1.438449  18 H  s                78     -1.283631   6 C  s         
    33     -1.167707   3 C  s               121     -0.851390  15 H  s         
   119      0.834321  14 H  s                48      0.749410   4 C  s         
    63      0.692898   5 N  s               115      0.651740  12 H  s         
    52      0.517396   4 C  px               82      0.434486   6 C  px        

 Vector   34  Occ=0.000000D+00  E= 8.404444D-02
              MO Center= -8.6D-02, -1.2D+00, -4.4D-02, r^2= 9.0D+00
   Bfn.  Coefficient  Atom+Function         Bfn.  Coefficient  Atom+Function  
  ----- ------------  ---------------      ----- ------------  ---------------
     3      2.083818   1 C  s               107     -1.218665   8 H  s         
    48     -1.085736   4 C  s               117      0.975642  13 H  s         
   111     -0.917233  10 H  s               121      0.807846  15 H  s         
    33     -0.720210   3 C  s               127      0.499358  18 H  s         
   109     -0.496585   9 H  s                37     -0.396968   3 C  px        

 Vector   35  Occ=0.000000D+00  E= 9.650967D-02
              MO Center= -4.4D-01, -1.7D+00,  3.1D-01, r^2= 7.1D+00
   Bfn.  Coefficient  Atom+Function         Bfn.  Coefficient  Atom+Function  
  ----- ------------  ---------------      ----- ------------  ---------------
   109      1.240962   9 H  s                 3     -0.901515   1 C  s         
   111     -0.905341  10 H  s               117      0.830190  13 H  s         
   119     -0.719341  14 H  s                33     -0.697261   3 C  s         
     8     -0.672625   1 C  py               48      0.667133   4 C  s         
   107      0.629582   8 H  s               123     -0.556246  16 H  s         

 Vector   36  Occ=0.000000D+00  E= 1.082829D-01
              MO Center= -3.5D-01, -4.2D-02, -1.5D-01, r^2= 1.2D+01
   Bfn.  Coefficient  Atom+Function         Bfn.  Coefficient  Atom+Function  
  ----- ------------  ---------------      ----- ------------  ---------------
    33      1.853250   3 C  s               127      1.251890  18 H  s         
    48     -1.202171   4 C  s                 3     -0.977624   1 C  s         
   119     -0.865407  14 H  s                63      0.845023   5 N  s         
   107      0.847274   8 H  s               115     -0.758703  12 H  s         
    78     -0.739282   6 C  s               121      0.712468  15 H  s         

 Vector   37  Occ=0.000000D+00  E= 1.129465D-01
              MO Center=  2.6D-01, -6.0D-01,  3.6D-01, r^2= 7.2D+00
   Bfn.  Coefficient  Atom+Function         Bfn.  Coefficient  Atom+Function  
  ----- ------------  ---------------      ----- ------------  ---------------
    18      1.913116   2 C  s               113     -1.488956  11 H  s         
     3     -1.026495   1 C  s               123     -0.909380  16 H  s         
    33     -0.903948   3 C  s               111      0.812528  10 H  s         
   117      0.751212  13 H  s               121      0.728819  15 H  s         
    24      0.670196   2 C  pz               52     -0.609020   4 C  px        

 Vector   38  Occ=0.000000D+00  E= 1.288507D-01
              MO Center= -5.5D-01, -9.2D-01,  7.0D-02, r^2= 6.9D+00
   Bfn.  Coefficient  Atom+Function         Bfn.  Coefficient  Atom+Function  
  ----- ------------  ---------------      ----- ------------  ---------------
    18      1.944494   2 C  s                48     -1.723786   4 C  s         
   109      1.366742   9 H  s               113     -1.114985  11 H  s         
   123      1.064688  16 H  s                 3     -0.806294   1 C  s         
     8     -0.738109   1 C  py              107     -0.684901   8 H  s         
    23      0.667520   2 C  py               63      0.660508   5 N  s         

 Vector   39  Occ=0.000000D+00  E= 1.356233D-01
              MO Center=  4.4D-02, -2.2D+00, -1.8D-01, r^2= 6.9D+00
   Bfn.  Coefficient  Atom+Function         Bfn.  Coefficient  Atom+Function  
  ----- ------------  ---------------      ----- ------------  ---------------
   115      1.447626  12 H  s               107     -1.103678   8 H  s         
   119     -0.969275  14 H  s                39      0.877330   3 C  pz        
   111      0.803688  10 H  s               117     -0.734884  13 H  s         
     9     -0.724431   1 C  pz              109      0.606220   9 H  s         
    37      0.535073   3 C  px               48     -0.349465   4 C  s         

 Vector   40  Occ=0.000000D+00  E= 1.475817D-01
              MO Center=  7.9D-01, -9.5D-01, -2.3D-01, r^2= 7.6D+00
   Bfn.  Coefficient  Atom+Function         Bfn.  Coefficient  Atom+Function  
  ----- ------------  ---------------      ----- ------------  ---------------
   121     -1.358243  15 H  s               117      1.271380  13 H  s         
    48      1.021251   4 C  s               111      0.955111  10 H  s         
   119     -0.725600  14 H  s               123      0.709474  16 H  s         
    18     -0.643937   2 C  s                37     -0.623580   3 C  px        
    78     -0.575750   6 C  s                53      0.527384   4 C  py        

 Vector   41  Occ=0.000000D+00  E= 1.808119D-01
              MO Center=  6.4D-02, -9.8D-01, -2.2D-02, r^2= 5.6D+00
   Bfn.  Coefficient  Atom+Function         Bfn.  Coefficient  Atom+Function  
  ----- ------------  ---------------      ----- ------------  ---------------
    23     -1.659200   2 C  py               18      1.598259   2 C  s         
     3     -1.129943   1 C  s                33     -1.088626   3 C  s         
    38     -0.938316   3 C  py               37      0.919961   3 C  px        
     7     -0.811812   1 C  px               63      0.796974   5 N  s         
    53     -0.729523   4 C  py              111      0.702141  10 H  s         

 Vector   42  Occ=0.000000D+00  E= 1.829758D-01
              MO Center= -1.9D-01, -1.2D+00, -1.6D-02, r^2= 5.0D+00
   Bfn.  Coefficient  Atom+Function         Bfn.  Coefficient  Atom+Function  
  ----- ------------  ---------------      ----- ------------  ---------------
    18      4.203845   2 C  s                 3     -1.986420   1 C  s         
    33     -1.745346   3 C  s                 7     -1.406359   1 C  px        
    53      1.266353   4 C  py               48     -1.157377   4 C  s         
    22     -1.107087   2 C  px               24     -1.052003   2 C  pz        
    37      0.799179   3 C  px                9      0.740520   1 C  pz        

 Vector   43  Occ=0.000000D+00  E= 1.989816D-01
              MO Center= -6.2D-03, -5.3D-01, -2.1D-01, r^2= 5.6D+00
   Bfn.  Coefficient  Atom+Function         Bfn.  Coefficient  Atom+Function  
  ----- ------------  ---------------      ----- ------------  ---------------
    22      1.623755   2 C  px               33     -1.370351   3 C  s         
    48      1.359158   4 C  s                23     -1.214472   2 C  py        
    52     -1.053451   4 C  px               54      0.982295   4 C  pz        
    78     -0.981549   6 C  s                 3      0.821253   1 C  s         
    63     -0.817974   5 N  s                38     -0.743582   3 C  py        

 Vector   44  Occ=0.000000D+00  E= 2.075515D-01
              MO Center=  1.9D-01, -4.7D-01, -1.0D-01, r^2= 6.0D+00
   Bfn.  Coefficient  Atom+Function         Bfn.  Coefficient  Atom+Function  
  ----- ------------  ---------------      ----- ------------  ---------------
    18      1.968246   2 C  s                48     -1.441921   4 C  s         
    24     -1.332957   2 C  pz               22      1.257468   2 C  px        
    54     -1.161118   4 C  pz               33     -1.136849   3 C  s         
    78      1.049218   6 C  s                38     -1.024991   3 C  py        
    93     -0.896468   7 O  s                53      0.820267   4 C  py        

 Vector   45  Occ=0.000000D+00  E= 2.386779D-01
              MO Center=  8.2D-02,  1.1D+00,  1.2D-01, r^2= 5.8D+00
   Bfn.  Coefficient  Atom+Function         Bfn.  Coefficient  Atom+Function  
  ----- ------------  ---------------      ----- ------------  ---------------
    48      2.086788   4 C  s                93     -1.521276   7 O  s         
    82      1.373043   6 C  px               78      1.336025   6 C  s         
    24      0.897231   2 C  pz               18     -0.840937   2 C  s         
    54      0.782091   4 C  pz               67     -0.546561   5 N  px        
    23     -0.497159   2 C  py               63     -0.499581   5 N  s         

 Vector   46  Occ=0.000000D+00  E= 2.935491D-01
              MO Center= -4.6D-01,  1.6D+00, -7.9D-02, r^2= 4.1D+00
   Bfn.  Coefficient  Atom+Function         Bfn.  Coefficient  Atom+Function  
  ----- ------------  ---------------      ----- ------------  ---------------
    78      2.219979   6 C  s                83     -1.790821   6 C  py        
    63     -1.552252   5 N  s                68     -1.249016   5 N  py        
    84     -1.135310   6 C  pz               82     -0.859353   6 C  px        
    69     -0.730569   5 N  pz               48     -0.718920   4 C  s         
    18      0.643534   2 C  s                52      0.575426   4 C  px        

 Vector   47  Occ=0.000000D+00  E= 3.581300D-01
              MO Center= -4.6D-01, -2.0D-01, -1.9D-01, r^2= 5.3D+00
   Bfn.  Coefficient  Atom+Function         Bfn.  Coefficient  Atom+Function  
  ----- ------------  ---------------      ----- ------------  ---------------
    48      1.769357   4 C  s                18     -1.362683   2 C  s         
    78     -0.867137   6 C  s               121     -0.660586  15 H  s         
     3      0.645750   1 C  s                77      0.601419   6 C  s         
    23     -0.488053   2 C  py               47     -0.446353   4 C  s         
    54      0.444865   4 C  pz              111     -0.433311  10 H  s         

 Vector   48  Occ=0.000000D+00  E= 3.685573D-01
              MO Center= -1.3D-01, -1.6D+00,  2.8D-01, r^2= 5.0D+00
   Bfn.  Coefficient  Atom+Function         Bfn.  Coefficient  Atom+Function  
  ----- ------------  ---------------      ----- ------------  ---------------
    33      1.157578   3 C  s                18     -0.963683   2 C  s         
     3      0.927266   1 C  s                37     -0.700145   3 C  px        
    23      0.619341   2 C  py              108      0.521732   9 H  s         
   116      0.486067  13 H  s                 8     -0.478898   1 C  py        
   117     -0.443239  13 H  s               106     -0.422032   8 H  s         

 Vector   49  Occ=0.000000D+00  E= 3.967124D-01
              MO Center= -1.1D-01, -1.2D+00,  2.0D-01, r^2= 5.2D+00
   Bfn.  Coefficient  Atom+Function         Bfn.  Coefficient  Atom+Function  
  ----- ------------  ---------------      ----- ------------  ---------------
     3      1.191581   1 C  s                 7      0.733222   1 C  px        
    63      0.554038   5 N  s                 2     -0.517929   1 C  s         
    39     -0.490150   3 C  pz              114     -0.457196  12 H  s         
     8      0.445515   1 C  py               18     -0.444020   2 C  s         
    38     -0.414120   3 C  py                4     -0.396100   1 C  px        

 Vector   50  Occ=0.000000D+00  E= 4.076596D-01
              MO Center=  8.4D-02, -3.6D-01, -1.6D-01, r^2= 5.6D+00
   Bfn.  Coefficient  Atom+Function         Bfn.  Coefficient  Atom+Function  
  ----- ------------  ---------------      ----- ------------  ---------------
    48      1.139687   4 C  s                54      0.909942   4 C  pz        
    53     -0.706978   4 C  py               83     -0.499081   6 C  py        
    18     -0.483958   2 C  s                63     -0.446520   5 N  s         
   123     -0.373960  16 H  s                39     -0.365017   3 C  pz        
   122      0.359253  16 H  s                47     -0.347042   4 C  s         

 Vector   51  Occ=0.000000D+00  E= 4.192425D-01
              MO Center= -3.7D-01,  5.5D-01, -2.8D-01, r^2= 5.6D+00
   Bfn.  Coefficient  Atom+Function         Bfn.  Coefficient  Atom+Function  
  ----- ------------  ---------------      ----- ------------  ---------------
    78      1.586713   6 C  s                77     -0.846523   6 C  s         
    18      0.836615   2 C  s                63     -0.823649   5 N  s         
    84     -0.534591   6 C  pz              124     -0.479425  17 H  s         
   127     -0.425035  18 H  s                81      0.369167   6 C  pz        
    39      0.363276   3 C  pz                7     -0.351456   1 C  px        

 Vector   52  Occ=0.000000D+00  E= 4.370604D-01
              MO Center=  1.3D-01,  3.4D-01, -2.8D-01, r^2= 6.6D+00
   Bfn.  Coefficient  Atom+Function         Bfn.  Coefficient  Atom+Function  
  ----- ------------  ---------------      ----- ------------  ---------------
     3      0.573407   1 C  s                78     -0.572279   6 C  s         
    33     -0.557311   3 C  s                83     -0.525420   6 C  py        
    38     -0.508980   3 C  py              126      0.496839  18 H  s         
    93      0.459093   7 O  s                53      0.455403   4 C  py        
    50     -0.447701   4 C  py              118     -0.446012  14 H  s         

 Vector   53  Occ=0.000000D+00  E= 4.663803D-01
              MO Center= -2.1D-01,  1.1D+00,  1.2D-01, r^2= 6.0D+00
   Bfn.  Coefficient  Atom+Function         Bfn.  Coefficient  Atom+Function  
  ----- ------------  ---------------      ----- ------------  ---------------
    48      1.891261   4 C  s                33     -1.135083   3 C  s         
    84     -1.012338   6 C  pz               23     -0.846170   2 C  py        
    63     -0.726283   5 N  s                81      0.622063   6 C  pz        
    54      0.559355   4 C  pz               47     -0.444360   4 C  s         
    39     -0.415402   3 C  pz              123     -0.403908  16 H  s         

 Vector   54  Occ=0.000000D+00  E= 5.215460D-01
              MO Center= -8.6D-03, -4.0D-01, -3.3D-02, r^2= 7.1D+00
   Bfn.  Coefficient  Atom+Function         Bfn.  Coefficient  Atom+Function  
  ----- ------------  ---------------      ----- ------------  ---------------
    48      2.537442   4 C  s                18     -1.979546   2 C  s         
    38      1.024709   3 C  py               33      0.923298   3 C  s         
    23     -0.855533   2 C  py               63     -0.852937   5 N  s         
    78      0.842190   6 C  s                24      0.721642   2 C  pz        
    32     -0.552341   3 C  s                 8      0.543083   1 C  py        

 Vector   55  Occ=0.000000D+00  E= 5.407444D-01
              MO Center= -4.4D-02, -6.8D-01, -4.5D-01, r^2= 6.0D+00
   Bfn.  Coefficient  Atom+Function         Bfn.  Coefficient  Atom+Function  
  ----- ------------  ---------------      ----- ------------  ---------------
    48      3.967385   4 C  s                18     -2.992238   2 C  s         
    33      2.096867   3 C  s                 3      1.818049   1 C  s         
    24      1.657852   2 C  pz               39     -1.038639   3 C  pz        
   123     -0.919104  16 H  s                37     -0.717298   3 C  px        
     9     -0.676122   1 C  pz              107     -0.637345   8 H  s         

 Vector   56  Occ=0.000000D+00  E= 5.499529D-01
              MO Center= -2.0D-01, -4.8D-01, -1.8D-02, r^2= 5.0D+00
   Bfn.  Coefficient  Atom+Function         Bfn.  Coefficient  Atom+Function  
  ----- ------------  ---------------      ----- ------------  ---------------
    18      4.452485   2 C  s                 3     -2.500076   1 C  s         
    54     -1.282653   4 C  pz               48     -1.269696   4 C  s         
    22     -1.140097   2 C  px                7     -0.974268   1 C  px        
    17     -0.929399   2 C  s               113     -0.737216  11 H  s         
    63      0.565518   5 N  s                37      0.557155   3 C  px        

 Vector   57  Occ=0.000000D+00  E= 5.599544D-01
              MO Center=  2.9D-02, -9.8D-01, -8.6D-02, r^2= 5.9D+00
   Bfn.  Coefficient  Atom+Function         Bfn.  Coefficient  Atom+Function  
  ----- ------------  ---------------      ----- ------------  ---------------
    18      3.272887   2 C  s                33     -2.251030   3 C  s         
     3     -1.875798   1 C  s                53      1.412834   4 C  py        
    63     -1.374105   5 N  s                 9      1.085897   1 C  pz        
    24     -1.047276   2 C  pz               23     -1.028210   2 C  py        
    52     -0.706774   4 C  px               17     -0.654104   2 C  s         

 Vector   58  Occ=0.000000D+00  E= 5.863742D-01
              MO Center= -3.8D-01,  2.1D+00,  1.6D-01, r^2= 4.9D+00
   Bfn.  Coefficient  Atom+Function         Bfn.  Coefficient  Atom+Function  
  ----- ------------  ---------------      ----- ------------  ---------------
    78      1.832580   6 C  s               127     -1.718271  18 H  s         
    48     -1.353847   4 C  s                77     -1.069206   6 C  s         
    83      1.070153   6 C  py              123      0.684299  16 H  s         
    80     -0.643794   6 C  py               63      0.613375   5 N  s         
    18     -0.610198   2 C  s               126      0.518167  18 H  s         

 Vector   59  Occ=0.000000D+00  E= 5.953312D-01
              MO Center=  2.4D-01, -1.3D+00,  2.1D-01, r^2= 5.5D+00
   Bfn.  Coefficient  Atom+Function         Bfn.  Coefficient  Atom+Function  
  ----- ------------  ---------------      ----- ------------  ---------------
    33      2.722887   3 C  s                 3      1.841711   1 C  s         
    23      1.504242   2 C  py               24     -1.262791   2 C  pz        
   119     -1.103027  14 H  s                39      0.936752   3 C  pz        
   121     -0.902429  15 H  s                48     -0.839731   4 C  s         
    32     -0.814266   3 C  s                 2     -0.741661   1 C  s         

 Vector   60  Occ=0.000000D+00  E= 6.060111D-01
              MO Center=  3.8D-01, -5.9D-01, -2.6D-01, r^2= 4.6D+00
   Bfn.  Coefficient  Atom+Function         Bfn.  Coefficient  Atom+Function  
  ----- ------------  ---------------      ----- ------------  ---------------
    48      3.607995   4 C  s                 3     -2.097782   1 C  s         
    23     -1.280732   2 C  py              121     -1.233129  15 H  s         
    22     -1.131013   2 C  px               24      1.007279   2 C  pz        
    47     -0.986025   4 C  s                33      0.714521   3 C  s         
    63     -0.649871   5 N  s               120      0.628960  15 H  s         

 Vector   61  Occ=0.000000D+00  E= 6.172215D-01
              MO Center=  1.3D-02, -8.6D-01,  6.7D-02, r^2= 7.1D+00
   Bfn.  Coefficient  Atom+Function         Bfn.  Coefficient  Atom+Function  
  ----- ------------  ---------------      ----- ------------  ---------------
    33      1.218855   3 C  s                 3      1.206407   1 C  s         
   111     -0.959000  10 H  s                18      0.919275   2 C  s         
   117     -0.789876  13 H  s                32     -0.706030   3 C  s         
   121      0.703315  15 H  s                38     -0.568999   3 C  py        
     9      0.541943   1 C  pz              123     -0.528818  16 H  s         

 Vector   62  Occ=0.000000D+00  E= 6.274230D-01
              MO Center= -2.8D-01,  3.4D-01,  2.7D-01, r^2= 6.3D+00
   Bfn.  Coefficient  Atom+Function         Bfn.  Coefficient  Atom+Function  
  ----- ------------  ---------------      ----- ------------  ---------------
    18      1.550109   2 C  s                33     -1.389319   3 C  s         
    48      1.204487   4 C  s                23     -0.974413   2 C  py        
   127      0.874364  18 H  s                37      0.813217   3 C  px        
    82      0.728117   6 C  px               63     -0.708706   5 N  s         
    79     -0.666472   6 C  px              108      0.632266   9 H  s         

 Vector   63  Occ=0.000000D+00  E= 6.319768D-01
              MO Center= -3.3D-01,  4.2D-02,  2.5D-01, r^2= 6.9D+00
   Bfn.  Coefficient  Atom+Function         Bfn.  Coefficient  Atom+Function  
  ----- ------------  ---------------      ----- ------------  ---------------
     3      2.695245   1 C  s                22      1.656552   2 C  px        
    78      1.286052   6 C  s                33     -1.269139   3 C  s         
    82     -1.194101   6 C  px              127     -1.125163  18 H  s         
    18      1.007808   2 C  s                38     -0.994126   3 C  py        
   109     -0.804387   9 H  s               107     -0.795026   8 H  s         

 Vector   64  Occ=0.000000D+00  E= 6.454571D-01
              MO Center=  4.7D-01, -1.0D+00, -5.0D-01, r^2= 5.6D+00
   Bfn.  Coefficient  Atom+Function         Bfn.  Coefficient  Atom+Function  
  ----- ------------  ---------------      ----- ------------  ---------------
    33      1.757573   3 C  s               123      1.430133  16 H  s         
   117     -1.384894  13 H  s                 3      1.283420   1 C  s         
    18     -1.262955   2 C  s                54      1.144741   4 C  pz        
   107     -0.862395   8 H  s                52      0.821480   4 C  px        
    37      0.755358   3 C  px               23     -0.597890   2 C  py        

 Vector   65  Occ=0.000000D+00  E= 6.542659D-01
              MO Center= -1.1D-01, -1.3D+00,  2.3D-01, r^2= 5.2D+00
   Bfn.  Coefficient  Atom+Function         Bfn.  Coefficient  Atom+Function  
  ----- ------------  ---------------      ----- ------------  ---------------
    18      2.730171   2 C  s                48     -2.324676   4 C  s         
   113     -1.294183  11 H  s                33     -1.186680   3 C  s         
   123      0.921501  16 H  s               107     -0.834427   8 H  s         
   119      0.698084  14 H  s                 7     -0.678811   1 C  px        
    63      0.677543   5 N  s                23      0.659270   2 C  py        

 Vector   66  Occ=0.000000D+00  E= 6.545913D-01
              MO Center= -1.0D-01, -1.3D+00, -1.2D-01, r^2= 5.3D+00
   Bfn.  Coefficient  Atom+Function         Bfn.  Coefficient  Atom+Function  
  ----- ------------  ---------------      ----- ------------  ---------------
    33      2.014613   3 C  s               115     -1.291315  12 H  s         
    48     -1.183069   4 C  s               109     -1.048625   9 H  s         
    22     -0.988959   2 C  px              121      0.839120  15 H  s         
    18     -0.803258   2 C  s                 9      0.749409   1 C  pz        
    54      0.688745   4 C  pz              107      0.666659   8 H  s         

 Vector   67  Occ=0.000000D+00  E= 6.587741D-01
              MO Center= -1.7D-01, -2.0D+00,  8.7D-02, r^2= 5.9D+00
   Bfn.  Coefficient  Atom+Function         Bfn.  Coefficient  Atom+Function  
  ----- ------------  ---------------      ----- ------------  ---------------
     3      3.010440   1 C  s                33     -2.612211   3 C  s         
   115      1.423449  12 H  s               111     -1.094088  10 H  s         
     7     -1.042641   1 C  px              109     -1.026015   9 H  s         
   107     -0.993027   8 H  s                 2     -0.940833   1 C  s         
    32      0.927985   3 C  s               119      0.781422  14 H  s         

 Vector   68  Occ=0.000000D+00  E= 6.785653D-01
              MO Center= -5.8D-01, -8.9D-01,  3.0D-01, r^2= 5.8D+00
   Bfn.  Coefficient  Atom+Function         Bfn.  Coefficient  Atom+Function  
  ----- ------------  ---------------      ----- ------------  ---------------
   111     -1.218025  10 H  s                24      1.200744   2 C  pz        
   113     -0.967202  11 H  s                 8     -0.936192   1 C  py        
   119      0.901252  14 H  s                38      0.867183   3 C  py        
   125      0.802797  17 H  s                33     -0.713654   3 C  s         
     9      0.708930   1 C  pz               22     -0.636399   2 C  px        

 Vector   69  Occ=0.000000D+00  E= 6.845868D-01
              MO Center=  2.3D-01, -1.5D+00,  2.3D-01, r^2= 4.8D+00
   Bfn.  Coefficient  Atom+Function         Bfn.  Coefficient  Atom+Function  
  ----- ------------  ---------------      ----- ------------  ---------------
    18      2.128528   2 C  s               113     -1.095973  11 H  s         
    63      1.042540   5 N  s               109     -0.805228   9 H  s         
    39      0.746740   3 C  pz              115      0.746330  12 H  s         
    48     -0.739811   4 C  s               117     -0.742972  13 H  s         
   119     -0.725231  14 H  s                17     -0.700433   2 C  s         

 Vector   70  Occ=0.000000D+00  E= 6.970424D-01
              MO Center=  1.1D-01, -1.4D+00,  1.7D-01, r^2= 5.8D+00
   Bfn.  Coefficient  Atom+Function         Bfn.  Coefficient  Atom+Function  
  ----- ------------  ---------------      ----- ------------  ---------------
     3      1.318632   1 C  s               119      1.179046  14 H  s         
     8      1.096449   1 C  py               33     -1.088638   3 C  s         
    24     -1.079457   2 C  pz               22      1.067951   2 C  px        
   109     -0.983341   9 H  s               107      0.935518   8 H  s         
     9      0.877804   1 C  pz               39     -0.730423   3 C  pz        

 Vector   71  Occ=0.000000D+00  E= 7.003295D-01
              MO Center= -2.3D-01, -1.2D+00,  6.5D-02, r^2= 5.6D+00
   Bfn.  Coefficient  Atom+Function         Bfn.  Coefficient  Atom+Function  
  ----- ------------  ---------------      ----- ------------  ---------------
    48      1.621032   4 C  s                22      0.919602   2 C  px        
   111     -0.878469  10 H  s               109      0.794562   9 H  s         
     3      0.749086   1 C  s               117      0.633727  13 H  s         
   121     -0.618790  15 H  s               115     -0.611281  12 H  s         
   125     -0.592797  17 H  s                 7      0.565535   1 C  px        

 Vector   72  Occ=0.000000D+00  E= 7.167555D-01
              MO Center=  1.8D-03, -9.2D-01, -2.6D-01, r^2= 5.5D+00
   Bfn.  Coefficient  Atom+Function         Bfn.  Coefficient  Atom+Function  
  ----- ------------  ---------------      ----- ------------  ---------------
    18      2.216435   2 C  s                48     -1.378087   4 C  s         
    24     -1.324279   2 C  pz               37      0.936608   3 C  px        
   121      0.917339  15 H  s                52     -0.812940   4 C  px        
    22     -0.799580   2 C  px              117     -0.792580  13 H  s         
     8     -0.735941   1 C  py               17     -0.607771   2 C  s         

 Vector   73  Occ=0.000000D+00  E= 7.501918D-01
              MO Center= -2.5D-01, -4.2D-01, -5.4D-01, r^2= 5.9D+00
   Bfn.  Coefficient  Atom+Function         Bfn.  Coefficient  Atom+Function  
  ----- ------------  ---------------      ----- ------------  ---------------
    18      2.204946   2 C  s                33     -1.615120   3 C  s         
    52      1.478243   4 C  px               38     -1.227508   3 C  py        
     8      1.153851   1 C  py              117      1.026420  13 H  s         
   121     -1.028309  15 H  s               125      0.899594  17 H  s         
     7     -0.839707   1 C  px              109     -0.815397   9 H  s         

 Vector   74  Occ=0.000000D+00  E= 8.277497D-01
              MO Center=  9.6D-03,  1.0D+00, -4.2D-03, r^2= 5.2D+00
   Bfn.  Coefficient  Atom+Function         Bfn.  Coefficient  Atom+Function  
  ----- ------------  ---------------      ----- ------------  ---------------
    18      2.669708   2 C  s                78     -2.514777   6 C  s         
    83      2.267771   6 C  py               63      2.150842   5 N  s         
[...]
   19    1.11289D-02  2.18188D-02  5.59990D-02  9.37639D-02 -1.15260D-01 -2.17398D-01 -1.69818D-02 -6.03064D-02  1.25837D-01 -5.10132D-01
   20    1.28109D-02 -8.62769D-03 -2.50471D-02  6.20426D-02  3.70618D-02  8.85116D-02 -2.44005D-02  8.62762D-03 -7.82473D-04 -1.00741D-01
   21    4.57357D-03 -6.94264D-03  7.39977D-02 -2.62150D-02  1.45505D-02 -1.51995D-01  9.57798D-03 -1.62393D-02  6.16168D-02 -1.20416D-01
   22   -2.16987D+01 -1.33096D+01 -1.98922D+01 -3.34213D+00 -4.36003D+00 -6.70432D+00  4.44013D-01 -2.73532D-01 -4.17403D-01  3.06210D-01
   23   -1.34193D+01 -3.28726D+01 -2.96198D+01 -1.26475D+00 -2.11259D+00 -2.55301D+00  3.23092D-01  1.69604D-01  1.81938D-01  1.10388D-01
   24   -2.00490D+01 -2.95486D+01 -5.63269D+01  5.57357D-01  1.05164D+00  1.42981D+00  8.41929D-02  1.27559D-01  2.24383D-01  1.10757D-01
   25   -4.25460D+01  3.50888D+01  9.77857D+00 -4.85553D+00  6.26748D+00  1.71021D+00 -1.41189D+00 -1.21079D+00  2.78617D-01 -9.30289D-03
   26    3.55092D+01 -5.37061D+01 -1.19912D+01 -2.16658D+00  2.94747D+00  7.19601D-01 -3.89125D-01 -1.14958D-01  2.06627D-01  1.39731D-01
   27    9.85539D+00 -1.18845D+01 -1.60771D+01  9.18201D-01 -1.32598D+00 -8.49253D-01  3.74602D-01  3.26976D-01  5.07676D-02  1.80010D-01
   28   -1.22437D+01  2.33942D+00 -3.11471D+00  3.24684D-01 -5.06797D+00  6.96784D+00  4.40471D-01 -2.46473D-01  1.48826D-01 -1.82232D+00
   29    2.01622D+00 -3.97135D+01  3.62854D+01  3.36988D-01 -2.22573D+00  2.27804D+00  2.04286D-01  1.81769D-01 -2.16543D-01 -7.08184D-01
   30   -2.68259D+00  3.64021D+01 -6.07892D+01 -3.13358D-01  7.32905D-01 -1.37176D+00 -2.05511D-01  1.10028D-02  1.50224D-02  6.19993D-01
   31   -3.60859D+00 -4.26221D+00 -6.42001D+00 -2.12313D+01 -1.21498D+01 -2.02923D+01  1.53055D+00  3.23699D+00  5.10995D+00 -1.76232D-01
   32   -1.35096D+00 -1.72541D+00 -2.36087D+00 -1.19790D+01 -2.92519D+01 -2.87150D+01 -1.70720D+00 -3.63975D+00 -5.44737D+00  2.04709D+00
   33    9.43069D-01  1.19496D+00  1.65794D+00 -2.01677D+01 -2.81068D+01 -5.99009D+01 -3.85099D-01 -8.19256D-01 -1.50816D+00 -2.29717D+00
   34    5.46685D-01  1.88639D-01  3.19293D-01  1.69080D+00  2.88730D+00  5.09233D+00 -1.93282D+01 -1.11310D+01 -1.79751D+01  1.49274D-01
   35   -3.49576D-01  1.95555D-01  2.06851D-01 -2.06111D+00 -3.73435D+00 -5.46520D+00 -1.09907D+01 -3.06238D+01 -2.95256D+01 -2.54777D-01
   36   -2.32021D-01  6.86861D-02  9.98598D-02 -4.55598D-01 -1.13553D+00 -1.88719D+00 -1.78738D+01 -2.95803D+01 -6.14358D+01 -3.65368D-02
   37   -4.76923D-01  1.38254D+00  2.71044D-01 -5.07003D+00 -2.43982D+00  7.89533D-01 -7.39079D+01 -2.64531D+01  1.16676D+01 -1.55956D-02
   38    6.54949D-01 -9.44560D-01 -1.58857D-01  6.20833D+00  2.70684D+00 -9.65799D-01 -2.70592D+01 -2.41005D+01  5.07645D+00  4.41166D-01
   39    2.17150D-01 -4.60324D-01  5.53909D-03  1.89801D+00  9.00329D-01 -8.68710D-01  1.16065D+01  5.01931D+00 -1.49582D+01 -3.33456D-01
   40    2.81093D-01  1.23308D-01 -3.59288D-01 -8.24491D-01  3.69124D+00 -4.77197D+00 -1.27500D+01  3.51034D+00 -4.40263D+00 -6.95986D-01
   41   -3.28330D-01  2.50930D-01  8.13818D-02  2.37253D-01 -4.44435D+00  4.95881D+00  3.66034D+00 -4.39012D+01  3.71294D+01  7.87732D-01
   42    9.36033D-03 -1.34860D-01  1.44378D-01  3.06627D-01 -1.82985D+00  1.82698D+00 -4.64815D+00  3.74397D+01 -5.61391D+01  2.40693D-01
   43    2.84649D-01  9.67858D-02  6.03917D-02 -4.67864D-02 -6.96327D-02  2.14881D-02  2.81429D-01  2.67675D-01 -2.58134D-01 -7.64367D+01
   44    3.94855D-01 -7.28657D-01  1.07571D+00 -5.25907D+00 -2.31753D+00  8.38053D-01 -4.50923D-01  6.01368D-02  2.69232D-02 -2.57003D+01
   45   -4.53832D-01  8.37542D-01 -9.12835D-01  6.45260D+00  3.13895D+00 -1.53215D+00  2.03974D-01 -2.68092D-01  1.78180D-01  9.92440D+00
   46    2.00958D-01  2.16699D-01  3.27535D-01 -6.30991D-02 -2.78880D-01  1.92926D-01  2.26600D-02 -1.24615D-01 -1.40754D-01 -2.25926D+01
   47    2.82564D-01  3.66434D-01  2.89288D-02  2.07955D+00  2.26839D+00  5.05265D+00 -8.46523D-02  4.89644D-01  2.08751D-01 -9.93346D+00
   48   -2.43563D-01 -3.75198D-01  4.07683D-01 -2.74000D+00 -2.48014D+00 -6.39242D+00  1.95626D-01 -3.09305D-01  1.79222D-01 -2.11956D+01
   49   -4.78325D-02 -1.78936D-02  3.54740D-02  2.05791D-02 -7.30007D-02  1.21688D-01 -1.76708D-02 -1.73659D-02 -2.79709D-02 -2.72800D+00
   50    9.65866D-02 -4.77715D-02 -6.81380D-02  6.42165D-01 -1.93345D-01 -3.37703D-01 -8.31709D-02 -1.82082D-01  2.01291D-01  6.51985D+00
   51   -1.95682D-01  1.46947D-01  1.89654D-01 -3.53446D-01  1.40473D-01 -5.77454D-02  8.40970D-02  1.09440D-01  4.55247D-03  3.24221D+00
   52   -3.68703D-02  1.06019D-02  5.81279D-03 -1.08889D-01  9.43454D-02 -1.02119D-02  5.00791D-02  2.41673D-02 -2.07223D-02  3.91255D-01
   53    4.87534D-02 -3.22616D-02  2.74373D-02 -5.85417D-02  1.74871D-01  1.89189D-03 -1.64528D-02  1.10409D-03  4.08264D-02 -8.31762D-01
   54    2.88112D-02  4.04922D-03 -1.70112D-02  2.58280D-01 -2.91677D-01 -2.30943D-01 -3.09667D-02 -9.03720D-02  1.39118D-01 -1.08203D+00


              11           12           13           14           15           16           17           18           19           20
   ----- ----- ----- ----- -----
   11    3.90021D+01
   12    5.00175D+00  4.24328D+01
   13    4.60199D+00  2.80895D-01  5.10515D+01
   14   -1.20443D+01 -2.67098D+00 -2.37164D+00  3.75036D+01
   15   -2.60817D+00 -5.72667D+00  1.37813D+01  1.62924D+01  1.80004D+01
   16    9.21508D-01  7.57757D-01 -1.07662D+01 -1.75789D+00 -3.40553D+00  7.33475D+01
   17   -2.78138D+00 -1.66274D+00 -2.97413D+00 -1.91878D+01 -9.72484D+00 -3.67615D+00  4.45488D+01
   18   -1.30012D+00 -5.49375D-01 -4.25654D+00 -9.53530D+00 -1.00040D+01  1.91507D+01  1.54305D+01  2.97608D+01
   19    3.80134D-01  3.97892D-01 -2.32887D+00 -2.51330D+00 -2.77203D+00 -4.34080D+01 -1.45434D+00 -1.46290D+01  4.19238D+01
   20    2.15476D-01  1.75098D-01 -3.10114D+00  5.02816D-01 -1.45036D+00 -1.38412D+00 -7.35935D+00 -1.81452D+00  3.14500D+00  5.01160D+00
   21    4.28095D-01 -1.87438D-01 -3.03256D+00 -1.39083D+00 -7.18743D-01 -1.44774D+01 -1.78624D+00 -1.11657D+01  1.61227D+01  2.83416D+00
   22    2.92196D-01 -3.36449D-01  5.40647D-02  4.58380D-02 -5.76837D-03 -1.43811D-01  1.69109D-02 -5.72346D-02  5.47273D-02 -7.00297D-02
   23    1.49203D-01 -5.21241D-01 -4.69831D-02 -1.16331D-01  1.56604D-01 -2.24469D-02  3.33645D-02 -3.62451D-02  2.69423D-02 -2.24336D-02
   24    2.06498D-01  4.12566D-01 -5.21451D-02 -9.95973D-02 -5.96389D-03  5.83686D-02  7.61564D-02 -5.38853D-03 -3.43692D-02 -1.31948D-02
   25    5.77645D-01 -3.48089D-02  3.91847D-01  2.00911D-01 -2.25975D-01 -1.82666D-01 -3.05943D-01 -2.34960D-01  1.38006D-01  1.48344D-03
   26   -7.12637D-03  1.36006D-01 -6.55276D-02 -7.99022D-03  1.83258D-01 -1.47183D-01 -2.32489D-01 -1.11232D-01  7.86289D-02  2.35786D-02
   27   -3.13369D-01  2.62043D-02 -1.66908D-01 -1.65550D-01 -5.63634D-02  1.93269D-01  2.88026D-01  2.69215D-01 -1.73687D-01 -3.41272D-02
   28   -2.33807D-01  1.87141D-01  1.07907D-01  1.34269D-01 -1.74405D-01  3.56786D-02 -3.03538D-04 -3.35780D-02 -9.30183D-05 -3.72065D-03
   29   -9.59656D-02 -8.44216D-02 -1.54526D-01 -3.00699D-02  3.64016D-02  1.26396D-01  1.89154D-01  1.30325D-01 -8.87973D-02 -2.98121D-02
   30   -1.76298D-02  2.67632D-01 -3.50107D-02 -3.14971D-02  7.29564D-02 -1.65410D-02 -3.64751D-02 -5.88111D-02  7.45049D-03  2.58837D-02
   31    6.93961D-02 -3.92533D-01 -8.71850D-02 -1.75349D-01 -5.02191D-02  9.40992D-02  2.41000D-01 -4.84094D-02 -9.41443D-02 -5.74157D-02
   32    2.07117D+00  5.78844D+00 -1.29210D-01  4.13797D-01 -3.26618D-01  4.65099D-01  3.87031D-02  2.93405D-01 -2.79007D-01 -9.23276D-02
   33   -2.71791D+00 -6.77965D+00  2.63181D-01 -4.66042D-02  6.38639D-01 -7.23766D-01 -8.95880D-03 -3.74964D-01  3.73047D-01 -2.57640D-01
   34   -8.24992D-02  2.13517D-01  4.98164D-03 -6.05428D-02 -1.01494D-02  5.39948D-03 -2.10450D-03  3.71852D-02 -7.81155D-03 -1.42264D-03
   35    1.96358D-01 -5.78317D-01  5.50726D-02  1.16421D-01  1.82597D-01 -1.49467D-01  2.74545D-02 -5.22882D-02  6.52786D-02 -4.56737D-02
   36    3.73091D-01  2.08427D-01  6.87678D-02 -1.99162D-02  3.02323D-02 -4.58894D-02  7.18451D-02 -1.84941D-02  6.10983D-03 -5.03993D-02
   37   -4.28788D-01  1.40365D-01  2.04644D-01  9.73263D-02  7.32115D-03 -9.88244D-02 -3.59735D-02 -2.46896D-02  7.10524D-02 -1.34590D-02
   38    1.85175D-01 -1.19706D-01 -9.73529D-02  1.11850D-01 -1.19897D-02 -1.31551D-02 -8.84076D-03 -2.52425D-02 -1.65640D-02  1.23727D-02
   39    8.34072D-02  9.09102D-02  1.95451D-02 -1.01060D-01 -7.85119D-02  8.18938D-02  6.49291D-02  1.16345D-01 -6.20802D-02  1.28916D-02
   40    3.48969D-01  6.55596D-01  6.13975D-02  4.91290D-01 -9.87865D-02 -1.91304D-01 -6.98922D-02 -1.47982D-01  1.02964D-01  4.00802D-03
   41   -4.38236D-01 -8.63531D-01  1.52859D-01 -4.25519D-01  2.00411D-01  2.16167D-01  1.97748D-01  1.87465D-01 -1.35499D-01 -4.23832D-02
   42   -2.06737D-01  6.43343D-02  7.02358D-02 -1.60986D-01  1.30804D-01  1.41459D-02  1.95799D-02  2.09542D-02 -2.34249D-02  7.93709D-03
   43   -2.37262D+01  1.09522D+01 -5.74247D+00  1.21349D+00  6.11659D-01 -7.37231D-01 -7.40910D-01 -9.37280D-01  6.34277D-01 -2.58002D-01
   44   -2.16978D+01  4.19747D+00  8.45315D+00  1.04054D+00 -1.17827D+00  1.19498D+00  3.60101D-01  3.21885D-01 -6.40747D-01 -1.17500D-01
   45    3.47646D+00 -1.45242D+01  1.71371D+00 -5.75296D-02 -2.27467D-01  1.05672D+00  7.12027D-02  5.22873D-01 -5.86982D-01  1.43087D-01
   46   -1.16664D+01 -2.25816D+01  1.40089D+00  4.44702D+00  5.55105D+00 -1.67182D+00  4.81742D-02 -2.25482D-01  6.17586D-01 -3.99264D-01
   47   -2.44814D+01 -2.41857D+01 -2.24290D+00 -5.25072D+00 -6.30730D+00  1.45751D+00 -7.23290D-02 -1.77514D-01 -1.29268D-01  4.64391D-02
   48   -2.56931D+01 -6.40854D+01 -2.54501D-01 -1.18083D+00 -1.04203D+00  6.43131D-01  2.76685D-01  1.13951D-01 -1.12265D-01  7.79734D-02
   49   -1.31731D+00 -4.77537D-01 -1.03623D+02  1.68592D+00 -3.00880D+01 -2.58194D+00  8.19443D-01  5.86628D-01  7.18805D-01 -4.13879D-01
   50    8.57702D-01  2.62648D+00  2.07777D+00 -1.40115D+01 -6.55713D+00 -8.55916D+00  1.74743D+00 -1.92560D-01  1.50123D-01 -8.29605D-01
   51    5.57886D-01 -1.80323D-01 -2.90770D+01 -6.38457D+00 -1.20629D+01 -5.33320D+00  2.32867D+00 -2.90319D+00 -3.62709D-01 -1.92533D+00
   52   -3.63789D-01 -7.40110D-01  2.78949D+00 -6.52990D-01 -1.59830D-01 -4.00923D+01  2.80484D+01  6.49934D+00 -9.32928D+00  5.19177D+00
   53    2.50500D-01 -1.49911D+00  4.93300D+00 -6.37861D+00 -2.85378D+00  2.59682D+01 -4.60922D+01 -7.73633D+00  2.04542D+00  3.78082D+00
   54   -7.98335D-01  9.88801D-01  2.96811D+00 -5.30333D+00  5.88708D-01  5.14055D+00 -6.66544D+00 -1.68180D+01 -3.69927D+00  1.56915D+00


              21           22           23           24           25           26           27           28           29           30
   ----- ----- ----- ----- -----
   21    9.39052D+00
   22    4.95375D-02  8.19392D+01
   23    5.02802D-02  5.38983D+01  1.18357D+02
   24    1.37328D-02  7.50887D+01  1.11378D+02  2.05377D+02
   25    9.65690D-02  7.75332D+00 -9.23350D+00 -1.54671D+00  1.60155D+02
   26    4.52305D-02  8.50065D+00 -9.65312D+00 -7.23199D-01 -1.31344D+02  1.97053D+02
   27   -1.08770D-01  1.57037D+01 -1.59324D+01 -3.66234D+00 -3.83698D+01  4.29749D+01  5.48493D+01
   28    3.75389D-03 -1.34423D+00  6.95461D+00 -7.16427D+00 -8.62849D-01  9.81096D+00 -1.58424D+01  4.66024D+01
   29   -8.29569D-02 -3.48598D-01  1.09064D+01 -1.34807D+01 -1.85254D-01 -1.19004D+01  1.72352D+01 -5.35316D+00  1.44991D+02
   30    2.73170D-02 -4.01177D-01  1.39703D+01 -1.56976D+01  4.24831D-02 -5.19257D+00  6.48024D+00  8.79249D+00 -1.36368D+02  2.21282D+02
   31    3.06842D-02 -5.08110D+00 -2.13966D+00  1.44547D+00  6.19769D-01  5.60328D-01 -2.74224D-01  1.14901D+00  1.44772D-01  2.69905D-01
   32   -2.04655D-01 -2.05474D+00  9.40077D-02  7.88807D-01  1.25415D-01  6.39475D-01  4.19290D-01  1.35223D-01 -8.78362D-02 -1.78973D-01
   33    2.88253D-01  1.87476D+00  9.56055D-01  1.00570D+00 -4.94050D-01 -1.93347D-01  2.93163D-01 -3.47422D-01  9.76404D-03  8.20279D-01
   34   -2.03293D-02 -1.17388D-01 -3.14801D-01 -6.16258D-01  1.27543D-01 -1.68651D-01 -3.17162D-01 -1.14389D-01 -2.59441D-02  4.15926D-03
   35    5.84284D-02  6.29891D-01  5.15475D-01  1.00081D-01 -5.98255D-02  2.00780D-02  3.05939D-01  6.46779D-02 -4.05277D-04  5.23924D-02
   36    1.09146D-02  8.30266D-01  8.72855D-02  9.21108D-02  1.54532D-01  2.13210D-01  2.63930D-01 -2.33568D-02 -3.82748D-02 -6.28596D-02
   37   -7.63589D-03  4.02111D-01  6.66907D-02 -9.55513D-02 -1.26379D+00 -5.62024D-01  4.20622D-01  2.28989D-01 -4.25503D-02  9.91576D-03
   38    1.29518D-02  1.59612D-01 -9.61017D-02  1.91010D-01  1.35012D+00  3.52425D-01 -3.47368D-01  5.70584D-03 -9.10280D-02 -2.13673D-01
   39   -5.82996D-02  3.34741D-01  1.37321D-01  1.08996D-01  6.08222D-01  1.67629D-01  2.96142D-01 -4.03353D-01 -1.67889D-01  2.21338D-01
   40    2.93133D-02 -1.24280D-01 -1.15024D-02 -2.58018D-02  2.98455D-01 -2.44833D-01  1.83637D-01 -2.78215D-01 -1.74613D-01  6.12747D-01
   41   -7.97174D-02  6.55490D-02 -6.96253D-04 -7.12738D-02 -2.64982D-01  1.74604D-02 -2.72818D-01  5.78304D-01  4.28806D-01 -3.07316D-01
   42   -1.80290D-02 -1.19347D-02  7.38192D-02 -1.36183D-01 -1.66950D-01 -1.06781D-01  1.00451D-01 -3.19332D-01  1.51964D-01  1.62003D-01
   43    7.46421D-03  9.27948D-02  9.10276D-02 -4.24833D-02  2.18116D-02  2.97036D-02 -1.18369D-01  2.41617D-02  7.76534D-02 -5.47624D-02
   44   -7.87860D-02  3.37861D-01  1.59907D-01 -1.49077D-01  1.06920D-01  1.30147D-01 -3.37263D-02 -1.23901D+00 -3.73812D-01  4.59270D-01
   45   -1.79945D-01  1.19159D-01  2.63350D-01  7.25776D-02 -1.52102D-01 -2.68931D-01 -7.53604D-04  1.28335D+00  6.58027D-01 -2.26770D-01
   46   -4.17202D-02  3.27253D-01  1.14090D-02 -3.04398D-01 -4.89477D-02  5.54026D-03 -2.16908D-02 -5.75142D-02  4.82332D-02 -1.38660D-01
   47   -5.71040D-02 -1.47003D-01 -7.57896D-02 -6.06668D-01 -1.72428D-01 -5.04640D-02  9.22685D-03  1.36422D-01  1.43872D-02 -2.31957D-01
   48    7.67266D-02  8.40120D-01  7.58696D-01  1.43458D-01  1.02946D-01 -1.66095D-02 -1.09427D-01  3.77622D-02  9.55436D-02  4.76625D-01
   49   -6.10811D-01 -5.46106D-03 -4.71792D-02 -4.19445D-02  2.77516D-01 -3.05973D-01  1.29081D-01  3.74527D-02 -6.85173D-02 -3.41011D-02
   50   -1.60350D+00 -6.12396D-02 -2.03833D-01 -5.93901D-02 -5.33778D-01 -3.73356D-01  9.91647D-01 -4.24700D-01  1.71009D-01 -1.85894D-02
   51    8.74367D-01  3.97298D-02 -1.95679D-01 -9.03826D-02  6.26512D-01  3.68359D-01 -7.06320D-01  2.59789D-01 -3.46507D-01 -9.50505D-02
   52   -2.04946D+00  5.21756D-02  4.34113D-02  1.88269D-02  1.13290D-02 -3.50311D-02  6.44058D-02 -1.34941D-02  4.02968D-02 -3.74324D-02
   53    5.49666D-01 -2.36064D-02  2.54207D-02 -2.71334D-02 -8.05414D-03  7.30850D-02 -5.31325D-02 -8.11903D-02 -5.89652D-02  5.29268D-02
   54    3.57486D+00 -2.05513D-02  3.12257D-02  4.01112D-03 -2.15262D-02  9.79513D-03  5.08820D-02  2.27274D-02 -3.35880D-02 -1.88669D-02


              31           32           33           34           35           36           37           38           39           40
   ----- ----- ----- ----- -----
   31    8.45573D+01
   32    4.35583D+01  1.13547D+02
   33    7.25925D+01  1.02633D+02  2.25905D+02
   34   -2.23056D+00  3.31971D+00  1.11147D+00  6.82199D+01
   35    3.61355D+00 -2.76900D+00 -5.86836D-01  3.78677D+01  1.13808D+02
   36    1.51070D+00 -8.03162D-01  9.02493D-01  6.58889D+01  1.13713D+02  2.25567D+02
   37    6.79379D-01  5.16192D-02  2.19767D-01 -5.87057D+00 -1.79601D+00  1.89083D+00  2.75027D+02
   38   -3.76866D-01  9.09139D-01 -2.46580D-02 -1.13192D+01 -5.62217D+00  4.07485D+00  9.59168D+01  8.76727D+01
   39    2.46818D-01  3.62121D-01 -8.81160D-03 -2.23822D+01 -8.77122D+00  5.88269D+00 -4.54465D+01 -1.82574D+01  5.06176D+01
   40    6.73847D-01 -6.04368D-01  2.15258D-01 -1.57261D+00  6.39139D+00 -6.33886D+00  3.96370D+00 -1.65864D+01  2.07808D+01  4.52577D+01
   41   -5.64753D-01  3.23476D-01  7.05808D-02 -7.98299D-01  1.11411D+01 -1.20842D+01  1.87910D+00 -6.80995D+00  7.33575D+00 -1.69889D+01
   42   -3.91453D-01  2.27173D-01  8.34547D-01 -4.99181D-01  1.56477D+01 -1.56975D+01 -7.59513D-01  1.13920D+00 -2.90336D+00  1.57443D+01
   43    4.26288D-01  2.15195D-02  6.05428D-02 -9.93996D-02 -1.02606D-01  7.48779D-02  2.49516D-01 -3.06318D-01  2.06647D-02  1.87775D-01
   44    3.40076D-01  8.04263D-01 -2.04112D-01  7.63330D-03 -8.30302D-02 -8.65276D-03  1.00532D+00 -3.78760D-01  2.11800D-01  2.74639D-01
   45    5.71673D-01 -3.39312D-01  3.83114D-01 -1.30847D-01 -6.95584D-03 -4.25250D-02 -5.74317D-01  2.13044D-01  3.68632D-01 -7.32090D-02
   46    7.19907D-01  5.20787D-01  2.54727D-02  1.13390D-01  4.71771D-01  2.37674D-02 -2.54502D-02 -7.60311D-02 -5.19696D-02 -6.57995D-02
   47    2.43627D-01 -2.37639D+00  3.53240D+00 -2.36960D-01 -2.17119D-01 -5.92011D-01  1.44733D-03 -6.20792D-02 -5.71907D-02 -2.26292D-01
   48    1.74492D-01  3.96316D+00 -2.70428D+00 -3.61617D-01  8.34986D-01  4.97668D-01 -1.26922D-02  6.91135D-02 -5.23346D-02  2.15463D-01
   49   -5.04939D-02 -3.65454D-02  3.28052D-03  2.03526D-02  2.18265D-02 -1.88950D-02  1.02669D-01 -3.41292D-02  1.99019D-02  2.07155D-02
   50   -6.20340D-02  4.02030D-02 -5.74357D-02  1.13691D-02  1.34470D-02 -5.52077D-02 -2.50352D-01  1.14680D-01  3.16522D-02  6.11665D-02
   51    9.06166D-04 -3.93072D-02  6.05274D-03 -5.96835D-02 -3.32557D-02 -2.35915D-02  2.40586D-02 -2.46657D-02 -1.06761D-01 -5.55445D-02
   52   -4.79986D-02 -2.24812D-01  3.61432D-01 -2.36665D-02  7.05030D-02  5.96354D-02  2.48399D-02 -9.28897D-02 -3.30429D-02 -6.81150D-02
   53   -4.39797D-02 -1.28631D-01  1.63844D-01 -2.44322D-02  5.17362D-02 -1.47518D-02 -4.74145D-02  1.71935D-02 -1.71497D-02  2.39836D-02
   54   -1.87351D-02  4.18005D-02 -9.95620D-02 -3.18755D-02  3.33897D-02 -3.16098D-02  7.17965D-03  3.76048D-02 -2.06335D-02  1.38981D-01


              41           42           43           44           45           46           47           48           49           50
   ----- ----- ----- ----- -----
   41    1.63472D+02
   42   -1.37982D+02  2.03732D+02
   43    6.41969D-02  6.06081D-02  2.88956D+02
   44    2.95493D-01 -1.87490D-01  8.08677D+01  8.61990D+01
   45   -3.86792D-01 -1.46004D-01 -4.10563D+01 -1.84867D+01  5.19160D+01
   46    1.49946D-01  2.01658D-01 -5.33895D+00 -9.42559D+00 -2.25660D+01  7.84524D+01
   47    8.61927D-02 -2.03211D-01 -2.07811D+00 -3.31864D+00 -7.00255D+00  3.31549D+01  1.00022D+02
   48    2.05771D-01  3.06792D-01  1.42636D+00  2.95594D+00  5.75165D+00  7.96673D+01  9.45181D+01  2.39364D+02
   49    3.28774D-03  3.45823D-02 -1.00611D+00  2.34659D+00  2.61421D-02  1.08283D+00 -1.62111D-01  4.47226D-03  4.00926D+02
   50   -3.42989D-01 -1.32827D-02  1.24321D+00 -2.81877D+00 -1.70598D-01 -2.18270D-01  5.02070D-01 -4.06654D-01 -4.18044D+00  5.19243D+01
   51    2.57342D-02  5.68804D-03  3.24240D+00 -2.78872D+00 -5.97181D-01  2.33133D-01  4.02298D-01  7.04653D-01  1.13212D+02  2.22423D+01
   52    6.63163D-02  8.07955D-03 -1.29131D-01 -6.79498D-01 -7.92063D-01  3.32373D-01 -2.49464D-01 -1.59524D-01  4.63550D-01  8.46785D-01
   53   -6.96452D-02  5.65532D-02  6.25679D-03 -9.41518D-02  1.33830D-01  1.10621D+00 -1.19249D+00 -2.64657D-01 -8.07717D-02 -1.02281D+00
   54   -1.41088D-01 -5.59848D-02  1.27244D-01  6.46126D-01  2.21087D-01 -2.05575D-01 -2.16942D-01 -2.57875D-02  4.29467D-01  6.52691D-01


              51           52           53           54
   ----- ----- ----- ----- -----
   51    5.38338D+01
   52    1.12592D+00  1.63490D+02
   53    5.28313D-01 -1.14009D+02  1.68800D+02
   54   -1.28031D+00 -1.16421D+01  3.95151D+01  3.98169D+01

 center of mass
 --------------
 x =   0.02922017 y =   0.14447114 z =   0.03261417

 moments of inertia (a.u.)
 ------------------
        1209.455014091699           6.385135644365          -3.568784657415
           6.385135644365         403.322963976599         -11.638353934203
          -3.568784657415         -11.638353934203        1348.376089135783


